#INFO: **** input file is /home/rppeng/test/td-occd/run_test/free.py ****
from pyscf import gto, scf, fci, cc, lib
from pyscf.cc import td_fci, td_occd_slow
import numpy as np
import math
einsum = lib.einsum
np.set_printoptions(precision=4,suppress=True)

mol = gto.Mole()
mol.atom = [['H', (0,0,0)], 
            ['H', (1,0,0)]] 
#mol.atom = [['O', (0,0,0)], 
#            ['H', (1.0,0,0)],
#            ['H', (math.cos(109),math.sin(109),0)]] 
#mol.basis = 'sto-3g'
mol.basis = '6-31g'
mol.symmetry = False
mol.verbose = 4
mol.build()
nao = mol.nao_nr()

mf = scf.RHF(mol)
mf.kernel()

w = 0.0
f0 = np.zeros(3)
td = 0.0
tf = 1.0
step = 0.001

# initial state as the HF Slater determinant
N = fci.cistring.num_strings(nao, mol.nelec[0])
ci = np.zeros((N,N))
ci[0,0] = 1.0
print('\n#################### FCI propagation ################')
td_fci.kernel_rt_test(mf, ci, w, f0, td, tf, step, RK=4)

no = sum(mol.nelec)
nv = nao*2 - no
t = np.zeros((nv,nv,no,no))
l = np.zeros((no,no,nv,nv))
U = np.eye(nao*2)
print('\n#################### OCCD propagation ################')
td_occd_slow.kernel_rt_test(mf, t, l, U, w, f0, td, tf, step, RK=4, orb=True)
#INFO: ******************** input file end ********************


System: uname_result(system='Linux', node='pauling050', release='3.10.0-327.36.3.el7.x86_64', version='#1 SMP Thu Oct 20 04:56:07 EDT 2016', machine='x86_64', processor='x86_64')  Threads 36
Python 3.7.4 (default, Aug 13 2019, 20:35:49) 
[GCC 7.3.0]
numpy 1.17.2  scipy 1.3.1
Date: Thu Sep  3 23:34:41 2020
PySCF version 1.7.1
PySCF path  /home/rppeng/code/pyscf/pyscf
GIT ORIG_HEAD 9324f3c4142ae713c70551f86b756a0d71fbddfd
GIT HEAD      ref: refs/heads/td-occd
GIT td-occd branch  7dd01cd0bf1e4f45ac0aa365c2721f1f2b737499

[CONFIG] conf_file None
[INPUT] verbose = 4
[INPUT] num. atoms = 2
[INPUT] num. electrons = 2
[INPUT] charge = 0
[INPUT] spin (= nelec alpha-beta = 2S) = 0
[INPUT] symmetry False subgroup None
[INPUT] Mole.unit = angstrom
[INPUT]  1 H      0.000000000000   0.000000000000   0.000000000000 AA    0.000000000000   0.000000000000   0.000000000000 Bohr
[INPUT]  2 H      1.000000000000   0.000000000000   0.000000000000 AA    1.889726124565   0.000000000000   0.000000000000 Bohr

nuclear repulsion = 0.52917721092
number of shells = 4
number of NR pGTOs = 8
number of NR cGTOs = 4
basis = 6-31g
ecp = {}
CPU time:         0.38


******** <class 'pyscf.scf.hf.RHF'> ********
method = RHF
initial guess = minao
damping factor = 0
level_shift factor = 0
DIIS = <class 'pyscf.scf.diis.CDIIS'>
diis_start_cycle = 1
diis_space = 8
SCF conv_tol = 1e-09
SCF conv_tol_grad = None
SCF max_cycles = 50
direct_scf = True
direct_scf_tol = 1e-13
chkfile to save SCF result = /home/rppeng/test/td-occd/run_test/tmp_33bxdjb
max_memory 4000 MB (current use 59 MB)
Set gradient conv threshold to 3.16228e-05
init E= -0.752131732969514
  HOMO = -0.442149939400371  LUMO = 0.113042775846349
cycle= 1 E= -1.09454654312156  delta_E= -0.342  |g|= 0.0252  |ddm|= 0.61
  HOMO = -0.530315478059846  LUMO = 0.165079009677014
cycle= 2 E= -1.09480176234734  delta_E= -0.000255  |g|= 0.00388  |ddm|= 0.0243
  HOMO = -0.527549894433719  LUMO = 0.16770710321119
cycle= 3 E= -1.09480796286031  delta_E= -6.2e-06  |g|= 6.99e-07  |ddm|= 0.00442
  HOMO = -0.52754641821743  LUMO = 0.16770711892096
cycle= 4 E= -1.09480796286048  delta_E= -1.67e-13  |g|= 2.88e-07  |ddm|= 4.7e-07
  HOMO = -0.527544018631638  LUMO = 0.167707099907541
Extra cycle  E= -1.09480796286051  delta_E= -3.33e-14  |g|= 4.43e-08  |ddm|= 2.78e-07
converged SCF energy = -1.09480796286051

#################### FCI propagation ################
check initial energy: -1.0948079628605112
time: 0.0000, EE(mH): 0.0
time: 0.0010, EE(mH): 0.0
time: 0.0020, EE(mH): 0.0
time: 0.0030, EE(mH): -4.440892098500626e-13
time: 0.0040, EE(mH): 0.0
time: 0.0050, EE(mH): -8.881784197001252e-13
time: 0.0060, EE(mH): 4.440892098500626e-13
time: 0.0070, EE(mH): -6.661338147750939e-13
time: 0.0080, EE(mH): 0.0
time: 0.0090, EE(mH): -2.220446049250313e-13
time: 0.0100, EE(mH): 0.0
time: 0.0110, EE(mH): 0.0
time: 0.0120, EE(mH): -1.3322676295501878e-12
time: 0.0130, EE(mH): -4.440892098500626e-13
time: 0.0140, EE(mH): -4.440892098500626e-13
time: 0.0150, EE(mH): 4.440892098500626e-13
time: 0.0160, EE(mH): 0.0
time: 0.0170, EE(mH): -8.881784197001252e-13
time: 0.0180, EE(mH): -8.881784197001252e-13
time: 0.0190, EE(mH): 4.440892098500626e-13
time: 0.0200, EE(mH): 0.0
time: 0.0210, EE(mH): 8.881784197001252e-13
time: 0.0220, EE(mH): -4.440892098500626e-13
time: 0.0230, EE(mH): -4.440892098500626e-13
time: 0.0240, EE(mH): 4.440892098500626e-13
time: 0.0250, EE(mH): -2.220446049250313e-13
time: 0.0260, EE(mH): 1.1102230246251565e-12
time: 0.0270, EE(mH): 4.440892098500626e-13
time: 0.0280, EE(mH): 4.440892098500626e-13
time: 0.0290, EE(mH): -8.881784197001252e-13
time: 0.0300, EE(mH): -1.3322676295501878e-12
time: 0.0310, EE(mH): 0.0
time: 0.0320, EE(mH): -4.440892098500626e-13
time: 0.0330, EE(mH): 4.440892098500626e-13
time: 0.0340, EE(mH): -2.220446049250313e-13
time: 0.0350, EE(mH): 4.440892098500626e-13
time: 0.0360, EE(mH): -4.440892098500626e-13
time: 0.0370, EE(mH): -1.7763568394002505e-12
time: 0.0380, EE(mH): -8.881784197001252e-13
time: 0.0390, EE(mH): 0.0
time: 0.0400, EE(mH): -4.440892098500626e-13
time: 0.0410, EE(mH): -2.220446049250313e-13
time: 0.0420, EE(mH): -2.220446049250313e-13
time: 0.0430, EE(mH): 0.0
time: 0.0440, EE(mH): -8.881784197001252e-13
time: 0.0450, EE(mH): 0.0
time: 0.0460, EE(mH): 0.0
time: 0.0470, EE(mH): 0.0
time: 0.0480, EE(mH): 2.220446049250313e-13
time: 0.0490, EE(mH): -4.440892098500626e-13
time: 0.0500, EE(mH): 0.0
time: 0.0510, EE(mH): -6.661338147750939e-13
time: 0.0520, EE(mH): 0.0
time: 0.0530, EE(mH): -4.440892098500626e-13
time: 0.0540, EE(mH): -4.440892098500626e-13
time: 0.0550, EE(mH): -4.440892098500626e-13
time: 0.0560, EE(mH): 0.0
time: 0.0570, EE(mH): 1.1102230246251565e-12
time: 0.0580, EE(mH): 6.661338147750939e-13
time: 0.0590, EE(mH): 2.220446049250313e-13
time: 0.0600, EE(mH): 0.0
time: 0.0610, EE(mH): -8.881784197001252e-13
time: 0.0620, EE(mH): 4.440892098500626e-13
time: 0.0630, EE(mH): 2.220446049250313e-13
time: 0.0640, EE(mH): 0.0
time: 0.0650, EE(mH): -4.440892098500626e-13
time: 0.0660, EE(mH): 8.881784197001252e-13
time: 0.0670, EE(mH): 2.220446049250313e-13
time: 0.0680, EE(mH): 4.440892098500626e-13
time: 0.0690, EE(mH): 0.0
time: 0.0700, EE(mH): 1.5543122344752192e-12
time: 0.0710, EE(mH): -4.440892098500626e-13
time: 0.0720, EE(mH): 4.440892098500626e-13
time: 0.0730, EE(mH): 4.440892098500626e-13
time: 0.0740, EE(mH): -8.881784197001252e-13
time: 0.0750, EE(mH): -1.3322676295501878e-12
time: 0.0760, EE(mH): -4.440892098500626e-13
time: 0.0770, EE(mH): 6.661338147750939e-13
time: 0.0780, EE(mH): -1.1102230246251565e-12
time: 0.0790, EE(mH): -4.440892098500626e-13
time: 0.0800, EE(mH): -8.881784197001252e-13
time: 0.0810, EE(mH): 4.440892098500626e-13
time: 0.0820, EE(mH): 4.440892098500626e-13
time: 0.0830, EE(mH): 0.0
time: 0.0840, EE(mH): 0.0
time: 0.0850, EE(mH): 0.0
time: 0.0860, EE(mH): -4.440892098500626e-13
time: 0.0870, EE(mH): 0.0
time: 0.0880, EE(mH): 8.881784197001252e-13
time: 0.0890, EE(mH): -1.3322676295501878e-12
time: 0.0900, EE(mH): 6.661338147750939e-13
time: 0.0910, EE(mH): -4.440892098500626e-13
time: 0.0920, EE(mH): 0.0
time: 0.0930, EE(mH): -2.220446049250313e-13
time: 0.0940, EE(mH): -8.881784197001252e-13
time: 0.0950, EE(mH): 4.440892098500626e-13
time: 0.0960, EE(mH): 2.220446049250313e-13
time: 0.0970, EE(mH): 4.440892098500626e-13
time: 0.0980, EE(mH): 4.440892098500626e-13
time: 0.0990, EE(mH): 0.0
time: 0.1000, EE(mH): -2.220446049250313e-13
time: 0.1010, EE(mH): -4.440892098500626e-13
time: 0.1020, EE(mH): -1.3322676295501878e-12
time: 0.1030, EE(mH): -1.1102230246251565e-12
time: 0.1040, EE(mH): 2.220446049250313e-13
time: 0.1050, EE(mH): 0.0
time: 0.1060, EE(mH): -8.881784197001252e-13
time: 0.1070, EE(mH): -4.440892098500626e-13
time: 0.1080, EE(mH): 8.881784197001252e-13
time: 0.1090, EE(mH): 8.881784197001252e-13
time: 0.1100, EE(mH): 2.220446049250313e-13
time: 0.1110, EE(mH): 0.0
time: 0.1120, EE(mH): 8.881784197001252e-13
time: 0.1130, EE(mH): -4.440892098500626e-13
time: 0.1140, EE(mH): 0.0
time: 0.1150, EE(mH): 8.881784197001252e-13
time: 0.1160, EE(mH): -1.5543122344752192e-12
time: 0.1170, EE(mH): -4.440892098500626e-13
time: 0.1180, EE(mH): -8.881784197001252e-13
time: 0.1190, EE(mH): 0.0
time: 0.1200, EE(mH): 6.661338147750939e-13
time: 0.1210, EE(mH): -2.220446049250313e-13
time: 0.1220, EE(mH): -8.881784197001252e-13
time: 0.1230, EE(mH): -4.440892098500626e-13
time: 0.1240, EE(mH): -4.440892098500626e-13
time: 0.1250, EE(mH): 8.881784197001252e-13
time: 0.1260, EE(mH): 0.0
time: 0.1270, EE(mH): 0.0
time: 0.1280, EE(mH): 0.0
time: 0.1290, EE(mH): -8.881784197001252e-13
time: 0.1300, EE(mH): 0.0
time: 0.1310, EE(mH): 0.0
time: 0.1320, EE(mH): 4.440892098500626e-13
time: 0.1330, EE(mH): 2.220446049250313e-13
time: 0.1340, EE(mH): 4.440892098500626e-13
time: 0.1350, EE(mH): -6.661338147750939e-13
time: 0.1360, EE(mH): -1.3322676295501878e-12
time: 0.1370, EE(mH): 8.881784197001252e-13
time: 0.1380, EE(mH): -6.661338147750939e-13
time: 0.1390, EE(mH): -1.3322676295501878e-12
time: 0.1400, EE(mH): -4.440892098500626e-13
time: 0.1410, EE(mH): 0.0
time: 0.1420, EE(mH): -4.440892098500626e-13
time: 0.1430, EE(mH): -2.220446049250313e-13
time: 0.1440, EE(mH): 4.440892098500626e-13
time: 0.1450, EE(mH): 8.881784197001252e-13
time: 0.1460, EE(mH): -2.220446049250313e-13
time: 0.1470, EE(mH): -2.220446049250313e-13
time: 0.1480, EE(mH): -8.881784197001252e-13
time: 0.1490, EE(mH): -8.881784197001252e-13
time: 0.1500, EE(mH): 4.440892098500626e-13
time: 0.1510, EE(mH): -4.440892098500626e-13
time: 0.1520, EE(mH): 4.440892098500626e-13
time: 0.1530, EE(mH): -4.440892098500626e-13
time: 0.1540, EE(mH): -8.881784197001252e-13
time: 0.1550, EE(mH): 0.0
time: 0.1560, EE(mH): 4.440892098500626e-13
time: 0.1570, EE(mH): 0.0
time: 0.1580, EE(mH): -2.220446049250313e-13
time: 0.1590, EE(mH): 0.0
time: 0.1600, EE(mH): 8.881784197001252e-13
time: 0.1610, EE(mH): 1.7763568394002505e-12
time: 0.1620, EE(mH): 0.0
time: 0.1630, EE(mH): 6.661338147750939e-13
time: 0.1640, EE(mH): 4.440892098500626e-13
time: 0.1650, EE(mH): 0.0
time: 0.1660, EE(mH): 4.440892098500626e-13
time: 0.1670, EE(mH): -8.881784197001252e-13
time: 0.1680, EE(mH): -1.3322676295501878e-12
time: 0.1690, EE(mH): 4.440892098500626e-13
time: 0.1700, EE(mH): -8.881784197001252e-13
time: 0.1710, EE(mH): -1.3322676295501878e-12
time: 0.1720, EE(mH): -6.661338147750939e-13
time: 0.1730, EE(mH): -8.881784197001252e-13
time: 0.1740, EE(mH): 4.440892098500626e-13
time: 0.1750, EE(mH): -1.1102230246251565e-12
time: 0.1760, EE(mH): 4.440892098500626e-13
time: 0.1770, EE(mH): -1.1102230246251565e-12
time: 0.1780, EE(mH): 1.3322676295501878e-12
time: 0.1790, EE(mH): -4.440892098500626e-13
time: 0.1800, EE(mH): 0.0
time: 0.1810, EE(mH): -2.220446049250313e-13
time: 0.1820, EE(mH): 6.661338147750939e-13
time: 0.1830, EE(mH): 0.0
time: 0.1840, EE(mH): 4.440892098500626e-13
time: 0.1850, EE(mH): 4.440892098500626e-13
time: 0.1860, EE(mH): -2.220446049250313e-13
time: 0.1870, EE(mH): -8.881784197001252e-13
time: 0.1880, EE(mH): 8.881784197001252e-13
time: 0.1890, EE(mH): -4.440892098500626e-13
time: 0.1900, EE(mH): 1.3322676295501878e-12
time: 0.1910, EE(mH): 4.440892098500626e-13
time: 0.1920, EE(mH): -8.881784197001252e-13
time: 0.1930, EE(mH): 0.0
time: 0.1940, EE(mH): -8.881784197001252e-13
time: 0.1950, EE(mH): -8.881784197001252e-13
time: 0.1960, EE(mH): 4.440892098500626e-13
time: 0.1970, EE(mH): 1.3322676295501878e-12
time: 0.1980, EE(mH): 6.661338147750939e-13
time: 0.1990, EE(mH): 0.0
time: 0.2000, EE(mH): 0.0
time: 0.2010, EE(mH): -2.220446049250313e-13
time: 0.2020, EE(mH): 8.881784197001252e-13
time: 0.2030, EE(mH): 0.0
time: 0.2040, EE(mH): 2.220446049250313e-13
time: 0.2050, EE(mH): -8.881784197001252e-13
time: 0.2060, EE(mH): -6.661338147750939e-13
time: 0.2070, EE(mH): 1.3322676295501878e-12
time: 0.2080, EE(mH): 0.0
time: 0.2090, EE(mH): 4.440892098500626e-13
time: 0.2100, EE(mH): -4.440892098500626e-13
time: 0.2110, EE(mH): 8.881784197001252e-13
time: 0.2120, EE(mH): 8.881784197001252e-13
time: 0.2130, EE(mH): 2.220446049250313e-13
time: 0.2140, EE(mH): 8.881784197001252e-13
time: 0.2150, EE(mH): -4.440892098500626e-13
time: 0.2160, EE(mH): 8.881784197001252e-13
time: 0.2170, EE(mH): 1.3322676295501878e-12
time: 0.2180, EE(mH): -4.440892098500626e-13
time: 0.2190, EE(mH): 0.0
time: 0.2200, EE(mH): -1.3322676295501878e-12
time: 0.2210, EE(mH): -2.220446049250313e-13
time: 0.2220, EE(mH): 0.0
time: 0.2230, EE(mH): -4.440892098500626e-13
time: 0.2240, EE(mH): 0.0
time: 0.2250, EE(mH): 0.0
time: 0.2260, EE(mH): 2.220446049250313e-13
time: 0.2270, EE(mH): -6.661338147750939e-13
time: 0.2280, EE(mH): 1.3322676295501878e-12
time: 0.2290, EE(mH): -6.661338147750939e-13
time: 0.2300, EE(mH): 0.0
time: 0.2310, EE(mH): 8.881784197001252e-13
time: 0.2320, EE(mH): 4.440892098500626e-13
time: 0.2330, EE(mH): -4.440892098500626e-13
time: 0.2340, EE(mH): -4.440892098500626e-13
time: 0.2350, EE(mH): 6.661338147750939e-13
time: 0.2360, EE(mH): -1.3322676295501878e-12
time: 0.2370, EE(mH): -4.440892098500626e-13
time: 0.2380, EE(mH): 0.0
time: 0.2390, EE(mH): 0.0
time: 0.2400, EE(mH): 4.440892098500626e-13
time: 0.2410, EE(mH): -8.881784197001252e-13
time: 0.2420, EE(mH): 4.440892098500626e-13
time: 0.2430, EE(mH): 2.220446049250313e-13
time: 0.2440, EE(mH): -4.440892098500626e-13
time: 0.2450, EE(mH): -4.440892098500626e-13
time: 0.2460, EE(mH): 0.0
time: 0.2470, EE(mH): -4.440892098500626e-13
time: 0.2480, EE(mH): 4.440892098500626e-13
time: 0.2490, EE(mH): 1.3322676295501878e-12
time: 0.2500, EE(mH): -2.220446049250313e-12
time: 0.2510, EE(mH): 8.881784197001252e-13
time: 0.2520, EE(mH): -8.881784197001252e-13
time: 0.2530, EE(mH): 0.0
time: 0.2540, EE(mH): -4.440892098500626e-13
time: 0.2550, EE(mH): 4.440892098500626e-13
time: 0.2560, EE(mH): 6.661338147750939e-13
time: 0.2570, EE(mH): 0.0
time: 0.2580, EE(mH): 4.440892098500626e-13
time: 0.2590, EE(mH): -4.440892098500626e-13
time: 0.2600, EE(mH): 0.0
time: 0.2610, EE(mH): -8.881784197001252e-13
time: 0.2620, EE(mH): -8.881784197001252e-13
time: 0.2630, EE(mH): 4.440892098500626e-13
time: 0.2640, EE(mH): -4.440892098500626e-13
time: 0.2650, EE(mH): 8.881784197001252e-13
time: 0.2660, EE(mH): 8.881784197001252e-13
time: 0.2670, EE(mH): 4.440892098500626e-13
time: 0.2680, EE(mH): 0.0
time: 0.2690, EE(mH): 1.1102230246251565e-12
time: 0.2700, EE(mH): 8.881784197001252e-13
time: 0.2710, EE(mH): 8.881784197001252e-13
time: 0.2720, EE(mH): -4.440892098500626e-13
time: 0.2730, EE(mH): -4.440892098500626e-13
time: 0.2740, EE(mH): 6.661338147750939e-13
time: 0.2750, EE(mH): 0.0
time: 0.2760, EE(mH): -2.220446049250313e-13
time: 0.2770, EE(mH): -2.220446049250313e-13
time: 0.2780, EE(mH): 0.0
time: 0.2790, EE(mH): 0.0
time: 0.2800, EE(mH): -8.881784197001252e-13
time: 0.2810, EE(mH): 6.661338147750939e-13
time: 0.2820, EE(mH): -2.220446049250313e-13
time: 0.2830, EE(mH): 4.440892098500626e-13
time: 0.2840, EE(mH): 4.440892098500626e-13
time: 0.2850, EE(mH): 0.0
time: 0.2860, EE(mH): 4.440892098500626e-13
time: 0.2870, EE(mH): -6.661338147750939e-13
time: 0.2880, EE(mH): -6.661338147750939e-13
time: 0.2890, EE(mH): 0.0
time: 0.2900, EE(mH): 0.0
time: 0.2910, EE(mH): 4.440892098500626e-13
time: 0.2920, EE(mH): 4.440892098500626e-13
time: 0.2930, EE(mH): -4.440892098500626e-13
time: 0.2940, EE(mH): 1.1102230246251565e-12
time: 0.2950, EE(mH): 4.440892098500626e-13
time: 0.2960, EE(mH): -6.661338147750939e-13
time: 0.2970, EE(mH): 0.0
time: 0.2980, EE(mH): -4.440892098500626e-13
time: 0.2990, EE(mH): 0.0
time: 0.3000, EE(mH): 2.220446049250313e-13
time: 0.3010, EE(mH): -8.881784197001252e-13
time: 0.3020, EE(mH): -2.220446049250313e-13
time: 0.3030, EE(mH): 6.661338147750939e-13
time: 0.3040, EE(mH): 4.440892098500626e-13
time: 0.3050, EE(mH): 8.881784197001252e-13
time: 0.3060, EE(mH): -8.881784197001252e-13
time: 0.3070, EE(mH): -4.440892098500626e-13
time: 0.3080, EE(mH): 4.440892098500626e-13
time: 0.3090, EE(mH): 0.0
time: 0.3100, EE(mH): -4.440892098500626e-13
time: 0.3110, EE(mH): -4.440892098500626e-13
time: 0.3120, EE(mH): 0.0
time: 0.3130, EE(mH): 0.0
time: 0.3140, EE(mH): -1.3322676295501878e-12
time: 0.3150, EE(mH): -2.220446049250313e-13
time: 0.3160, EE(mH): 0.0
time: 0.3170, EE(mH): 0.0
time: 0.3180, EE(mH): -4.440892098500626e-13
time: 0.3190, EE(mH): -1.3322676295501878e-12
time: 0.3200, EE(mH): 6.661338147750939e-13
time: 0.3210, EE(mH): 6.661338147750939e-13
time: 0.3220, EE(mH): -2.220446049250313e-13
time: 0.3230, EE(mH): -4.440892098500626e-13
time: 0.3240, EE(mH): -2.220446049250313e-13
time: 0.3250, EE(mH): 1.1102230246251565e-12
time: 0.3260, EE(mH): -4.440892098500626e-13
time: 0.3270, EE(mH): 8.881784197001252e-13
time: 0.3280, EE(mH): -4.440892098500626e-13
time: 0.3290, EE(mH): -4.440892098500626e-13
time: 0.3300, EE(mH): -4.440892098500626e-13
time: 0.3310, EE(mH): 1.1102230246251565e-12
time: 0.3320, EE(mH): 4.440892098500626e-13
time: 0.3330, EE(mH): 2.220446049250313e-13
time: 0.3340, EE(mH): 8.881784197001252e-13
time: 0.3350, EE(mH): 0.0
time: 0.3360, EE(mH): -4.440892098500626e-13
time: 0.3370, EE(mH): -8.881784197001252e-13
time: 0.3380, EE(mH): 4.440892098500626e-13
time: 0.3390, EE(mH): 2.220446049250313e-13
time: 0.3400, EE(mH): 0.0
time: 0.3410, EE(mH): -4.440892098500626e-13
time: 0.3420, EE(mH): -6.661338147750939e-13
time: 0.3430, EE(mH): -1.3322676295501878e-12
time: 0.3440, EE(mH): 1.3322676295501878e-12
time: 0.3450, EE(mH): 6.661338147750939e-13
time: 0.3460, EE(mH): -1.7763568394002505e-12
time: 0.3470, EE(mH): 4.440892098500626e-13
time: 0.3480, EE(mH): 0.0
time: 0.3490, EE(mH): -8.881784197001252e-13
time: 0.3500, EE(mH): -4.440892098500626e-13
time: 0.3510, EE(mH): -6.661338147750939e-13
time: 0.3520, EE(mH): 8.881784197001252e-13
time: 0.3530, EE(mH): 0.0
time: 0.3540, EE(mH): -4.440892098500626e-13
time: 0.3550, EE(mH): -1.1102230246251565e-12
time: 0.3560, EE(mH): -4.440892098500626e-13
time: 0.3570, EE(mH): -2.220446049250313e-13
time: 0.3580, EE(mH): -4.440892098500626e-13
time: 0.3590, EE(mH): 4.440892098500626e-13
time: 0.3600, EE(mH): 8.881784197001252e-13
time: 0.3610, EE(mH): 0.0
time: 0.3620, EE(mH): 4.440892098500626e-13
time: 0.3630, EE(mH): 4.440892098500626e-13
time: 0.3640, EE(mH): -4.440892098500626e-13
time: 0.3650, EE(mH): -4.440892098500626e-13
time: 0.3660, EE(mH): -1.1102230246251565e-12
time: 0.3670, EE(mH): 0.0
time: 0.3680, EE(mH): 2.220446049250313e-13
time: 0.3690, EE(mH): -4.440892098500626e-13
time: 0.3700, EE(mH): -1.7763568394002505e-12
time: 0.3710, EE(mH): -6.661338147750939e-13
time: 0.3720, EE(mH): -4.440892098500626e-13
time: 0.3730, EE(mH): 8.881784197001252e-13
time: 0.3740, EE(mH): -4.440892098500626e-13
time: 0.3750, EE(mH): -4.440892098500626e-13
time: 0.3760, EE(mH): -8.881784197001252e-13
time: 0.3770, EE(mH): 2.220446049250313e-13
time: 0.3780, EE(mH): 2.220446049250313e-13
time: 0.3790, EE(mH): -8.881784197001252e-13
time: 0.3800, EE(mH): -4.440892098500626e-13
time: 0.3810, EE(mH): -4.440892098500626e-13
time: 0.3820, EE(mH): 4.440892098500626e-13
time: 0.3830, EE(mH): 0.0
time: 0.3840, EE(mH): -4.440892098500626e-13
time: 0.3850, EE(mH): -4.440892098500626e-13
time: 0.3860, EE(mH): -4.440892098500626e-13
time: 0.3870, EE(mH): 2.220446049250313e-13
time: 0.3880, EE(mH): 4.440892098500626e-13
time: 0.3890, EE(mH): -1.3322676295501878e-12
time: 0.3900, EE(mH): 8.881784197001252e-13
time: 0.3910, EE(mH): 1.1102230246251565e-12
time: 0.3920, EE(mH): -4.440892098500626e-13
time: 0.3930, EE(mH): -4.440892098500626e-13
time: 0.3940, EE(mH): -8.881784197001252e-13
time: 0.3950, EE(mH): -6.661338147750939e-13
time: 0.3960, EE(mH): -4.440892098500626e-13
time: 0.3970, EE(mH): -4.440892098500626e-13
time: 0.3980, EE(mH): 0.0
time: 0.3990, EE(mH): 4.440892098500626e-13
time: 0.4000, EE(mH): -2.220446049250313e-13
time: 0.4010, EE(mH): 2.220446049250313e-13
time: 0.4020, EE(mH): 0.0
time: 0.4030, EE(mH): 0.0
time: 0.4040, EE(mH): 4.440892098500626e-13
time: 0.4050, EE(mH): 0.0
time: 0.4060, EE(mH): 0.0
time: 0.4070, EE(mH): 4.440892098500626e-13
time: 0.4080, EE(mH): -4.440892098500626e-13
time: 0.4090, EE(mH): 4.440892098500626e-13
time: 0.4100, EE(mH): -4.440892098500626e-13
time: 0.4110, EE(mH): 8.881784197001252e-13
time: 0.4120, EE(mH): 4.440892098500626e-13
time: 0.4130, EE(mH): -4.440892098500626e-13
time: 0.4140, EE(mH): -1.1102230246251565e-12
time: 0.4150, EE(mH): 1.3322676295501878e-12
time: 0.4160, EE(mH): 4.440892098500626e-13
time: 0.4170, EE(mH): 4.440892098500626e-13
time: 0.4180, EE(mH): 0.0
time: 0.4190, EE(mH): -4.440892098500626e-13
time: 0.4200, EE(mH): -1.3322676295501878e-12
time: 0.4210, EE(mH): -8.881784197001252e-13
time: 0.4220, EE(mH): -1.1102230246251565e-12
time: 0.4230, EE(mH): 0.0
time: 0.4240, EE(mH): -2.220446049250313e-13
time: 0.4250, EE(mH): 0.0
time: 0.4260, EE(mH): -6.661338147750939e-13
time: 0.4270, EE(mH): 0.0
time: 0.4280, EE(mH): -2.220446049250313e-13
time: 0.4290, EE(mH): 4.440892098500626e-13
time: 0.4300, EE(mH): -4.440892098500626e-13
time: 0.4310, EE(mH): -4.440892098500626e-13
time: 0.4320, EE(mH): -8.881784197001252e-13
time: 0.4330, EE(mH): 4.440892098500626e-13
time: 0.4340, EE(mH): -4.440892098500626e-13
time: 0.4350, EE(mH): 2.220446049250313e-13
time: 0.4360, EE(mH): 4.440892098500626e-13
time: 0.4370, EE(mH): -4.440892098500626e-13
time: 0.4380, EE(mH): 0.0
time: 0.4390, EE(mH): 0.0
time: 0.4400, EE(mH): 1.3322676295501878e-12
time: 0.4410, EE(mH): -1.3322676295501878e-12
time: 0.4420, EE(mH): 0.0
time: 0.4430, EE(mH): 0.0
time: 0.4440, EE(mH): 0.0
time: 0.4450, EE(mH): 0.0
time: 0.4460, EE(mH): 4.440892098500626e-13
time: 0.4470, EE(mH): 4.440892098500626e-13
time: 0.4480, EE(mH): -1.1102230246251565e-12
time: 0.4490, EE(mH): 0.0
time: 0.4500, EE(mH): -8.881784197001252e-13
time: 0.4510, EE(mH): 8.881784197001252e-13
time: 0.4520, EE(mH): -1.7763568394002505e-12
time: 0.4530, EE(mH): 1.1102230246251565e-12
time: 0.4540, EE(mH): 4.440892098500626e-13
time: 0.4550, EE(mH): -4.440892098500626e-13
time: 0.4560, EE(mH): 0.0
time: 0.4570, EE(mH): 0.0
time: 0.4580, EE(mH): 4.440892098500626e-13
time: 0.4590, EE(mH): -6.661338147750939e-13
time: 0.4600, EE(mH): 2.220446049250313e-13
time: 0.4610, EE(mH): 0.0
time: 0.4620, EE(mH): 0.0
time: 0.4630, EE(mH): 6.661338147750939e-13
time: 0.4640, EE(mH): 0.0
time: 0.4650, EE(mH): 2.220446049250313e-13
time: 0.4660, EE(mH): 0.0
time: 0.4670, EE(mH): 1.3322676295501878e-12
time: 0.4680, EE(mH): 2.220446049250313e-13
time: 0.4690, EE(mH): 0.0
time: 0.4700, EE(mH): -6.661338147750939e-13
time: 0.4710, EE(mH): -4.440892098500626e-13
time: 0.4720, EE(mH): 1.5543122344752192e-12
time: 0.4730, EE(mH): 6.661338147750939e-13
time: 0.4740, EE(mH): -1.3322676295501878e-12
time: 0.4750, EE(mH): -4.440892098500626e-13
time: 0.4760, EE(mH): 4.440892098500626e-13
time: 0.4770, EE(mH): -6.661338147750939e-13
time: 0.4780, EE(mH): 4.440892098500626e-13
time: 0.4790, EE(mH): 4.440892098500626e-13
time: 0.4800, EE(mH): -6.661338147750939e-13
time: 0.4810, EE(mH): -8.881784197001252e-13
time: 0.4820, EE(mH): 6.661338147750939e-13
time: 0.4830, EE(mH): -2.220446049250313e-13
time: 0.4840, EE(mH): -1.7763568394002505e-12
time: 0.4850, EE(mH): -1.1102230246251565e-12
time: 0.4860, EE(mH): 0.0
time: 0.4870, EE(mH): -4.440892098500626e-13
time: 0.4880, EE(mH): 4.440892098500626e-13
time: 0.4890, EE(mH): -1.1102230246251565e-12
time: 0.4900, EE(mH): -2.220446049250313e-13
time: 0.4910, EE(mH): 4.440892098500626e-13
time: 0.4920, EE(mH): -1.5543122344752192e-12
time: 0.4930, EE(mH): -1.3322676295501878e-12
time: 0.4940, EE(mH): -4.440892098500626e-13
time: 0.4950, EE(mH): 8.881784197001252e-13
time: 0.4960, EE(mH): -1.3322676295501878e-12
time: 0.4970, EE(mH): 4.440892098500626e-13
time: 0.4980, EE(mH): -2.220446049250313e-13
time: 0.4990, EE(mH): -4.440892098500626e-13
time: 0.5000, EE(mH): 0.0
time: 0.5010, EE(mH): -6.661338147750939e-13
time: 0.5020, EE(mH): 0.0
time: 0.5030, EE(mH): 2.220446049250313e-13
time: 0.5040, EE(mH): 4.440892098500626e-13
time: 0.5050, EE(mH): -1.3322676295501878e-12
time: 0.5060, EE(mH): -6.661338147750939e-13
time: 0.5070, EE(mH): 0.0
time: 0.5080, EE(mH): -4.440892098500626e-13
time: 0.5090, EE(mH): -4.440892098500626e-13
time: 0.5100, EE(mH): -8.881784197001252e-13
time: 0.5110, EE(mH): -8.881784197001252e-13
time: 0.5120, EE(mH): -4.440892098500626e-13
time: 0.5130, EE(mH): 0.0
time: 0.5140, EE(mH): 6.661338147750939e-13
time: 0.5150, EE(mH): 4.440892098500626e-13
time: 0.5160, EE(mH): 0.0
time: 0.5170, EE(mH): -2.220446049250313e-13
time: 0.5180, EE(mH): 1.3322676295501878e-12
time: 0.5190, EE(mH): 0.0
time: 0.5200, EE(mH): -4.440892098500626e-13
time: 0.5210, EE(mH): 0.0
time: 0.5220, EE(mH): 6.661338147750939e-13
time: 0.5230, EE(mH): -6.661338147750939e-13
time: 0.5240, EE(mH): -4.440892098500626e-13
time: 0.5250, EE(mH): -6.661338147750939e-13
time: 0.5260, EE(mH): -4.440892098500626e-13
time: 0.5270, EE(mH): 8.881784197001252e-13
time: 0.5280, EE(mH): 2.220446049250313e-13
time: 0.5290, EE(mH): 2.220446049250313e-13
time: 0.5300, EE(mH): 0.0
time: 0.5310, EE(mH): -8.881784197001252e-13
time: 0.5320, EE(mH): -1.9984014443252818e-12
time: 0.5330, EE(mH): 6.661338147750939e-13
time: 0.5340, EE(mH): -8.881784197001252e-13
time: 0.5350, EE(mH): -8.881784197001252e-13
time: 0.5360, EE(mH): 8.881784197001252e-13
time: 0.5370, EE(mH): -4.440892098500626e-13
time: 0.5380, EE(mH): 4.440892098500626e-13
time: 0.5390, EE(mH): -8.881784197001252e-13
time: 0.5400, EE(mH): -4.440892098500626e-13
time: 0.5410, EE(mH): -1.3322676295501878e-12
time: 0.5420, EE(mH): 2.220446049250313e-13
time: 0.5430, EE(mH): 0.0
time: 0.5440, EE(mH): 6.661338147750939e-13
time: 0.5450, EE(mH): 4.440892098500626e-13
time: 0.5460, EE(mH): 4.440892098500626e-13
time: 0.5470, EE(mH): -2.220446049250313e-13
time: 0.5480, EE(mH): -4.440892098500626e-13
time: 0.5490, EE(mH): -4.440892098500626e-13
time: 0.5500, EE(mH): 0.0
time: 0.5510, EE(mH): -4.440892098500626e-13
time: 0.5520, EE(mH): -1.3322676295501878e-12
time: 0.5530, EE(mH): -4.440892098500626e-13
time: 0.5540, EE(mH): 6.661338147750939e-13
time: 0.5550, EE(mH): -8.881784197001252e-13
time: 0.5560, EE(mH): 4.440892098500626e-13
time: 0.5570, EE(mH): -2.220446049250313e-13
time: 0.5580, EE(mH): -8.881784197001252e-13
time: 0.5590, EE(mH): -8.881784197001252e-13
time: 0.5600, EE(mH): 0.0
time: 0.5610, EE(mH): 6.661338147750939e-13
time: 0.5620, EE(mH): -8.881784197001252e-13
time: 0.5630, EE(mH): 4.440892098500626e-13
time: 0.5640, EE(mH): -4.440892098500626e-13
time: 0.5650, EE(mH): 0.0
time: 0.5660, EE(mH): 8.881784197001252e-13
time: 0.5670, EE(mH): 1.3322676295501878e-12
time: 0.5680, EE(mH): 6.661338147750939e-13
time: 0.5690, EE(mH): -4.440892098500626e-13
time: 0.5700, EE(mH): 0.0
time: 0.5710, EE(mH): 0.0
time: 0.5720, EE(mH): 6.661338147750939e-13
time: 0.5730, EE(mH): -8.881784197001252e-13
time: 0.5740, EE(mH): -4.440892098500626e-13
time: 0.5750, EE(mH): 8.881784197001252e-13
time: 0.5760, EE(mH): -6.661338147750939e-13
time: 0.5770, EE(mH): -1.1102230246251565e-12
time: 0.5780, EE(mH): 4.440892098500626e-13
time: 0.5790, EE(mH): -2.220446049250313e-13
time: 0.5800, EE(mH): 0.0
time: 0.5810, EE(mH): -8.881784197001252e-13
time: 0.5820, EE(mH): -4.440892098500626e-13
time: 0.5830, EE(mH): 0.0
time: 0.5840, EE(mH): -8.881784197001252e-13
time: 0.5850, EE(mH): 4.440892098500626e-13
time: 0.5860, EE(mH): -1.5543122344752192e-12
time: 0.5870, EE(mH): -1.1102230246251565e-12
time: 0.5880, EE(mH): 4.440892098500626e-13
time: 0.5890, EE(mH): 4.440892098500626e-13
time: 0.5900, EE(mH): -4.440892098500626e-13
time: 0.5910, EE(mH): 1.1102230246251565e-12
time: 0.5920, EE(mH): -2.220446049250313e-13
time: 0.5930, EE(mH): -1.3322676295501878e-12
time: 0.5940, EE(mH): -8.881784197001252e-13
time: 0.5950, EE(mH): 0.0
time: 0.5960, EE(mH): -4.440892098500626e-13
time: 0.5970, EE(mH): 0.0
time: 0.5980, EE(mH): 4.440892098500626e-13
time: 0.5990, EE(mH): -4.440892098500626e-13
time: 0.6000, EE(mH): -4.440892098500626e-13
time: 0.6010, EE(mH): -8.881784197001252e-13
time: 0.6020, EE(mH): -8.881784197001252e-13
time: 0.6030, EE(mH): -8.881784197001252e-13
time: 0.6040, EE(mH): 0.0
time: 0.6050, EE(mH): -8.881784197001252e-13
time: 0.6060, EE(mH): 8.881784197001252e-13
time: 0.6070, EE(mH): 0.0
time: 0.6080, EE(mH): 8.881784197001252e-13
time: 0.6090, EE(mH): 4.440892098500626e-13
time: 0.6100, EE(mH): 4.440892098500626e-13
time: 0.6110, EE(mH): -2.220446049250313e-13
time: 0.6120, EE(mH): -8.881784197001252e-13
time: 0.6130, EE(mH): 6.661338147750939e-13
time: 0.6140, EE(mH): 0.0
time: 0.6150, EE(mH): -4.440892098500626e-13
time: 0.6160, EE(mH): 0.0
time: 0.6170, EE(mH): -1.1102230246251565e-12
time: 0.6180, EE(mH): -4.440892098500626e-13
time: 0.6190, EE(mH): 2.220446049250313e-13
time: 0.6200, EE(mH): 2.220446049250313e-13
time: 0.6210, EE(mH): 0.0
time: 0.6220, EE(mH): -4.440892098500626e-13
time: 0.6230, EE(mH): 0.0
time: 0.6240, EE(mH): 0.0
time: 0.6250, EE(mH): 4.440892098500626e-13
time: 0.6260, EE(mH): 0.0
time: 0.6270, EE(mH): 0.0
time: 0.6280, EE(mH): -8.881784197001252e-13
time: 0.6290, EE(mH): 4.440892098500626e-13
time: 0.6300, EE(mH): -2.220446049250313e-13
time: 0.6310, EE(mH): -6.661338147750939e-13
time: 0.6320, EE(mH): 2.220446049250313e-13
time: 0.6330, EE(mH): -2.220446049250313e-13
time: 0.6340, EE(mH): 0.0
time: 0.6350, EE(mH): 0.0
time: 0.6360, EE(mH): 0.0
time: 0.6370, EE(mH): 0.0
time: 0.6380, EE(mH): 8.881784197001252e-13
time: 0.6390, EE(mH): 8.881784197001252e-13
time: 0.6400, EE(mH): 0.0
time: 0.6410, EE(mH): -2.220446049250313e-13
time: 0.6420, EE(mH): 4.440892098500626e-13
time: 0.6430, EE(mH): 4.440892098500626e-13
time: 0.6440, EE(mH): -1.1102230246251565e-12
time: 0.6450, EE(mH): 0.0
time: 0.6460, EE(mH): -8.881784197001252e-13
time: 0.6470, EE(mH): 8.881784197001252e-13
time: 0.6480, EE(mH): -4.440892098500626e-13
time: 0.6490, EE(mH): 8.881784197001252e-13
time: 0.6500, EE(mH): 2.220446049250313e-13
time: 0.6510, EE(mH): 0.0
time: 0.6520, EE(mH): 0.0
time: 0.6530, EE(mH): -1.3322676295501878e-12
time: 0.6540, EE(mH): -8.881784197001252e-13
time: 0.6550, EE(mH): 4.440892098500626e-13
time: 0.6560, EE(mH): -4.440892098500626e-13
time: 0.6570, EE(mH): -8.881784197001252e-13
time: 0.6580, EE(mH): 4.440892098500626e-13
time: 0.6590, EE(mH): -8.881784197001252e-13
time: 0.6600, EE(mH): 0.0
time: 0.6610, EE(mH): 0.0
time: 0.6620, EE(mH): -2.220446049250313e-13
time: 0.6630, EE(mH): 2.220446049250313e-13
time: 0.6640, EE(mH): -1.1102230246251565e-12
time: 0.6650, EE(mH): -6.661338147750939e-13
time: 0.6660, EE(mH): -4.440892098500626e-13
time: 0.6670, EE(mH): -2.220446049250313e-12
time: 0.6680, EE(mH): 0.0
time: 0.6690, EE(mH): 0.0
time: 0.6700, EE(mH): 4.440892098500626e-13
time: 0.6710, EE(mH): 4.440892098500626e-13
time: 0.6720, EE(mH): -6.661338147750939e-13
time: 0.6730, EE(mH): 0.0
time: 0.6740, EE(mH): -4.440892098500626e-13
time: 0.6750, EE(mH): 2.220446049250313e-13
time: 0.6760, EE(mH): -4.440892098500626e-13
time: 0.6770, EE(mH): 0.0
time: 0.6780, EE(mH): -8.881784197001252e-13
time: 0.6790, EE(mH): -8.881784197001252e-13
time: 0.6800, EE(mH): 8.881784197001252e-13
time: 0.6810, EE(mH): -8.881784197001252e-13
time: 0.6820, EE(mH): 1.1102230246251565e-12
time: 0.6830, EE(mH): 6.661338147750939e-13
time: 0.6840, EE(mH): 8.881784197001252e-13
time: 0.6850, EE(mH): 8.881784197001252e-13
time: 0.6860, EE(mH): 4.440892098500626e-13
time: 0.6870, EE(mH): -2.220446049250313e-13
time: 0.6880, EE(mH): -1.3322676295501878e-12
time: 0.6890, EE(mH): 0.0
time: 0.6900, EE(mH): 0.0
time: 0.6910, EE(mH): -4.440892098500626e-13
time: 0.6920, EE(mH): -4.440892098500626e-13
time: 0.6930, EE(mH): -1.3322676295501878e-12
time: 0.6940, EE(mH): -4.440892098500626e-13
time: 0.6950, EE(mH): 2.220446049250313e-13
time: 0.6960, EE(mH): -4.440892098500626e-13
time: 0.6970, EE(mH): -4.440892098500626e-13
time: 0.6980, EE(mH): 4.440892098500626e-13
time: 0.6990, EE(mH): -2.220446049250313e-13
time: 0.7000, EE(mH): -8.881784197001252e-13
time: 0.7010, EE(mH): 4.440892098500626e-13
time: 0.7020, EE(mH): 2.220446049250313e-13
time: 0.7030, EE(mH): 4.440892098500626e-13
time: 0.7040, EE(mH): 1.3322676295501878e-12
time: 0.7050, EE(mH): 8.881784197001252e-13
time: 0.7060, EE(mH): 0.0
time: 0.7070, EE(mH): 4.440892098500626e-13
time: 0.7080, EE(mH): -2.220446049250313e-13
time: 0.7090, EE(mH): -8.881784197001252e-13
time: 0.7100, EE(mH): -4.440892098500626e-13
time: 0.7110, EE(mH): 0.0
time: 0.7120, EE(mH): 0.0
time: 0.7130, EE(mH): -6.661338147750939e-13
time: 0.7140, EE(mH): 6.661338147750939e-13
time: 0.7150, EE(mH): -8.881784197001252e-13
time: 0.7160, EE(mH): -1.3322676295501878e-12
time: 0.7170, EE(mH): -4.440892098500626e-13
time: 0.7180, EE(mH): 1.3322676295501878e-12
time: 0.7190, EE(mH): 0.0
time: 0.7200, EE(mH): 2.220446049250313e-13
time: 0.7210, EE(mH): -6.661338147750939e-13
time: 0.7220, EE(mH): 2.220446049250313e-13
time: 0.7230, EE(mH): -4.440892098500626e-13
time: 0.7240, EE(mH): -4.440892098500626e-13
time: 0.7250, EE(mH): 0.0
time: 0.7260, EE(mH): 2.220446049250313e-13
time: 0.7270, EE(mH): 8.881784197001252e-13
time: 0.7280, EE(mH): 4.440892098500626e-13
time: 0.7290, EE(mH): -8.881784197001252e-13
time: 0.7300, EE(mH): -2.220446049250313e-13
time: 0.7310, EE(mH): 0.0
time: 0.7320, EE(mH): -8.881784197001252e-13
time: 0.7330, EE(mH): 0.0
time: 0.7340, EE(mH): -4.440892098500626e-13
time: 0.7350, EE(mH): -1.1102230246251565e-12
time: 0.7360, EE(mH): -8.881784197001252e-13
time: 0.7370, EE(mH): 0.0
time: 0.7380, EE(mH): -4.440892098500626e-13
time: 0.7390, EE(mH): -8.881784197001252e-13
time: 0.7400, EE(mH): -2.220446049250313e-13
time: 0.7410, EE(mH): -8.881784197001252e-13
time: 0.7420, EE(mH): 8.881784197001252e-13
time: 0.7430, EE(mH): -8.881784197001252e-13
time: 0.7440, EE(mH): -4.440892098500626e-13
time: 0.7450, EE(mH): 4.440892098500626e-13
time: 0.7460, EE(mH): 0.0
time: 0.7470, EE(mH): 0.0
time: 0.7480, EE(mH): 2.220446049250313e-13
time: 0.7490, EE(mH): 0.0
time: 0.7500, EE(mH): 0.0
time: 0.7510, EE(mH): -4.440892098500626e-13
time: 0.7520, EE(mH): 2.220446049250313e-13
time: 0.7530, EE(mH): -8.881784197001252e-13
time: 0.7540, EE(mH): 0.0
time: 0.7550, EE(mH): 4.440892098500626e-13
time: 0.7560, EE(mH): 4.440892098500626e-13
time: 0.7570, EE(mH): 0.0
time: 0.7580, EE(mH): 0.0
time: 0.7590, EE(mH): -4.440892098500626e-13
time: 0.7600, EE(mH): -2.220446049250313e-13
time: 0.7610, EE(mH): -1.5543122344752192e-12
time: 0.7620, EE(mH): 2.220446049250313e-13
time: 0.7630, EE(mH): -4.440892098500626e-13
time: 0.7640, EE(mH): -2.220446049250313e-13
time: 0.7650, EE(mH): 2.220446049250313e-13
time: 0.7660, EE(mH): 0.0
time: 0.7670, EE(mH): -6.661338147750939e-13
time: 0.7680, EE(mH): 4.440892098500626e-13
time: 0.7690, EE(mH): 4.440892098500626e-13
time: 0.7700, EE(mH): -8.881784197001252e-13
time: 0.7710, EE(mH): -1.5543122344752192e-12
time: 0.7720, EE(mH): -6.661338147750939e-13
time: 0.7730, EE(mH): 0.0
time: 0.7740, EE(mH): 2.220446049250313e-13
time: 0.7750, EE(mH): -4.440892098500626e-13
time: 0.7760, EE(mH): -8.881784197001252e-13
time: 0.7770, EE(mH): 4.440892098500626e-13
time: 0.7780, EE(mH): -4.440892098500626e-13
time: 0.7790, EE(mH): 8.881784197001252e-13
time: 0.7800, EE(mH): 2.220446049250313e-13
time: 0.7810, EE(mH): -6.661338147750939e-13
time: 0.7820, EE(mH): -1.3322676295501878e-12
time: 0.7830, EE(mH): 0.0
time: 0.7840, EE(mH): 0.0
time: 0.7850, EE(mH): 0.0
time: 0.7860, EE(mH): 8.881784197001252e-13
time: 0.7870, EE(mH): -8.881784197001252e-13
time: 0.7880, EE(mH): 4.440892098500626e-13
time: 0.7890, EE(mH): 4.440892098500626e-13
time: 0.7900, EE(mH): -8.881784197001252e-13
time: 0.7910, EE(mH): 0.0
time: 0.7920, EE(mH): -4.440892098500626e-13
time: 0.7930, EE(mH): 0.0
time: 0.7940, EE(mH): 8.881784197001252e-13
time: 0.7950, EE(mH): 1.3322676295501878e-12
time: 0.7960, EE(mH): 0.0
time: 0.7970, EE(mH): 8.881784197001252e-13
time: 0.7980, EE(mH): -6.661338147750939e-13
time: 0.7990, EE(mH): -4.440892098500626e-13
time: 0.8000, EE(mH): -2.220446049250313e-13
time: 0.8010, EE(mH): 0.0
time: 0.8020, EE(mH): -8.881784197001252e-13
time: 0.8030, EE(mH): 0.0
time: 0.8040, EE(mH): -1.3322676295501878e-12
time: 0.8050, EE(mH): -8.881784197001252e-13
time: 0.8060, EE(mH): 8.881784197001252e-13
time: 0.8070, EE(mH): 0.0
time: 0.8080, EE(mH): 8.881784197001252e-13
time: 0.8090, EE(mH): -2.220446049250313e-13
time: 0.8100, EE(mH): 2.220446049250313e-13
time: 0.8110, EE(mH): 8.881784197001252e-13
time: 0.8120, EE(mH): 4.440892098500626e-13
time: 0.8130, EE(mH): 4.440892098500626e-13
time: 0.8140, EE(mH): 0.0
time: 0.8150, EE(mH): 4.440892098500626e-13
time: 0.8160, EE(mH): 2.220446049250313e-13
time: 0.8170, EE(mH): -2.220446049250313e-13
time: 0.8180, EE(mH): -1.5543122344752192e-12
time: 0.8190, EE(mH): 6.661338147750939e-13
time: 0.8200, EE(mH): -8.881784197001252e-13
time: 0.8210, EE(mH): -4.440892098500626e-13
time: 0.8220, EE(mH): -8.881784197001252e-13
time: 0.8230, EE(mH): 6.661338147750939e-13
time: 0.8240, EE(mH): -2.220446049250313e-13
time: 0.8250, EE(mH): -4.440892098500626e-13
time: 0.8260, EE(mH): 8.881784197001252e-13
time: 0.8270, EE(mH): -2.220446049250313e-13
time: 0.8280, EE(mH): -1.1102230246251565e-12
time: 0.8290, EE(mH): 2.220446049250313e-13
time: 0.8300, EE(mH): -4.440892098500626e-13
time: 0.8310, EE(mH): -8.881784197001252e-13
time: 0.8320, EE(mH): 2.220446049250313e-13
time: 0.8330, EE(mH): -1.1102230246251565e-12
time: 0.8340, EE(mH): -2.220446049250313e-13
time: 0.8350, EE(mH): -1.3322676295501878e-12
time: 0.8360, EE(mH): -8.881784197001252e-13
time: 0.8370, EE(mH): -4.440892098500626e-13
time: 0.8380, EE(mH): 2.220446049250313e-13
time: 0.8390, EE(mH): 1.3322676295501878e-12
time: 0.8400, EE(mH): -2.220446049250313e-13
time: 0.8410, EE(mH): 0.0
time: 0.8420, EE(mH): -4.440892098500626e-13
time: 0.8430, EE(mH): 0.0
time: 0.8440, EE(mH): 1.3322676295501878e-12
time: 0.8450, EE(mH): -8.881784197001252e-13
time: 0.8460, EE(mH): 0.0
time: 0.8470, EE(mH): -1.1102230246251565e-12
time: 0.8480, EE(mH): -4.440892098500626e-13
time: 0.8490, EE(mH): 4.440892098500626e-13
time: 0.8500, EE(mH): 0.0
time: 0.8510, EE(mH): -4.440892098500626e-13
time: 0.8520, EE(mH): -4.440892098500626e-13
time: 0.8530, EE(mH): -6.661338147750939e-13
time: 0.8540, EE(mH): -6.661338147750939e-13
time: 0.8550, EE(mH): 2.220446049250313e-13
time: 0.8560, EE(mH): 4.440892098500626e-13
time: 0.8570, EE(mH): -4.440892098500626e-13
time: 0.8580, EE(mH): -4.440892098500626e-13
time: 0.8590, EE(mH): 2.220446049250313e-13
time: 0.8600, EE(mH): 1.1102230246251565e-12
time: 0.8610, EE(mH): -2.220446049250313e-13
time: 0.8620, EE(mH): -4.440892098500626e-13
time: 0.8630, EE(mH): 0.0
time: 0.8640, EE(mH): 0.0
time: 0.8650, EE(mH): 0.0
time: 0.8660, EE(mH): 0.0
time: 0.8670, EE(mH): -4.440892098500626e-13
time: 0.8680, EE(mH): 0.0
time: 0.8690, EE(mH): 2.220446049250313e-13
time: 0.8700, EE(mH): 0.0
time: 0.8710, EE(mH): -8.881784197001252e-13
time: 0.8720, EE(mH): -1.1102230246251565e-12
time: 0.8730, EE(mH): -4.440892098500626e-13
time: 0.8740, EE(mH): -4.440892098500626e-13
time: 0.8750, EE(mH): 8.881784197001252e-13
time: 0.8760, EE(mH): 2.220446049250313e-13
time: 0.8770, EE(mH): -4.440892098500626e-13
time: 0.8780, EE(mH): 4.440892098500626e-13
time: 0.8790, EE(mH): 4.440892098500626e-13
time: 0.8800, EE(mH): 4.440892098500626e-13
time: 0.8810, EE(mH): 8.881784197001252e-13
time: 0.8820, EE(mH): 0.0
time: 0.8830, EE(mH): -1.1102230246251565e-12
time: 0.8840, EE(mH): 4.440892098500626e-13
time: 0.8850, EE(mH): 4.440892098500626e-13
time: 0.8860, EE(mH): 1.1102230246251565e-12
time: 0.8870, EE(mH): -1.3322676295501878e-12
time: 0.8880, EE(mH): 0.0
time: 0.8890, EE(mH): 4.440892098500626e-13
time: 0.8900, EE(mH): 1.7763568394002505e-12
time: 0.8910, EE(mH): 0.0
time: 0.8920, EE(mH): 2.220446049250313e-13
time: 0.8930, EE(mH): -4.440892098500626e-13
time: 0.8940, EE(mH): 4.440892098500626e-13
time: 0.8950, EE(mH): -8.881784197001252e-13
time: 0.8960, EE(mH): 0.0
time: 0.8970, EE(mH): -1.3322676295501878e-12
time: 0.8980, EE(mH): -4.440892098500626e-13
time: 0.8990, EE(mH): -8.881784197001252e-13
time: 0.9000, EE(mH): -4.440892098500626e-13
time: 0.9010, EE(mH): 1.3322676295501878e-12
time: 0.9020, EE(mH): -4.440892098500626e-13
time: 0.9030, EE(mH): 4.440892098500626e-13
time: 0.9040, EE(mH): 4.440892098500626e-13
time: 0.9050, EE(mH): 6.661338147750939e-13
time: 0.9060, EE(mH): 4.440892098500626e-13
time: 0.9070, EE(mH): 4.440892098500626e-13
time: 0.9080, EE(mH): 4.440892098500626e-13
time: 0.9090, EE(mH): 0.0
time: 0.9100, EE(mH): 4.440892098500626e-13
time: 0.9110, EE(mH): -2.220446049250313e-13
time: 0.9120, EE(mH): -4.440892098500626e-13
time: 0.9130, EE(mH): -4.440892098500626e-13
time: 0.9140, EE(mH): 0.0
time: 0.9150, EE(mH): 2.220446049250313e-13
time: 0.9160, EE(mH): 4.440892098500626e-13
time: 0.9170, EE(mH): -8.881784197001252e-13
time: 0.9180, EE(mH): 4.440892098500626e-13
time: 0.9190, EE(mH): -6.661338147750939e-13
time: 0.9200, EE(mH): -4.440892098500626e-13
time: 0.9210, EE(mH): 6.661338147750939e-13
time: 0.9220, EE(mH): 0.0
time: 0.9230, EE(mH): -2.220446049250313e-13
time: 0.9240, EE(mH): 4.440892098500626e-13
time: 0.9250, EE(mH): -2.220446049250313e-13
time: 0.9260, EE(mH): -1.3322676295501878e-12
time: 0.9270, EE(mH): 4.440892098500626e-13
time: 0.9280, EE(mH): 6.661338147750939e-13
time: 0.9290, EE(mH): 6.661338147750939e-13
time: 0.9300, EE(mH): -4.440892098500626e-13
time: 0.9310, EE(mH): -2.220446049250313e-13
time: 0.9320, EE(mH): 2.220446049250313e-13
time: 0.9330, EE(mH): 2.220446049250313e-13
time: 0.9340, EE(mH): 0.0
time: 0.9350, EE(mH): 4.440892098500626e-13
time: 0.9360, EE(mH): -8.881784197001252e-13
time: 0.9370, EE(mH): 0.0
time: 0.9380, EE(mH): -8.881784197001252e-13
time: 0.9390, EE(mH): 6.661338147750939e-13
time: 0.9400, EE(mH): -8.881784197001252e-13
time: 0.9410, EE(mH): -1.1102230246251565e-12
time: 0.9420, EE(mH): 2.220446049250313e-13
time: 0.9430, EE(mH): -1.5543122344752192e-12
time: 0.9440, EE(mH): -4.440892098500626e-13
time: 0.9450, EE(mH): -6.661338147750939e-13
time: 0.9460, EE(mH): -8.881784197001252e-13
time: 0.9470, EE(mH): -4.440892098500626e-13
time: 0.9480, EE(mH): 0.0
time: 0.9490, EE(mH): 4.440892098500626e-13
time: 0.9500, EE(mH): 8.881784197001252e-13
time: 0.9510, EE(mH): 4.440892098500626e-13
time: 0.9520, EE(mH): 4.440892098500626e-13
time: 0.9530, EE(mH): -4.440892098500626e-13
time: 0.9540, EE(mH): -4.440892098500626e-13
time: 0.9550, EE(mH): -2.220446049250313e-13
time: 0.9560, EE(mH): 0.0
time: 0.9570, EE(mH): 4.440892098500626e-13
time: 0.9580, EE(mH): 0.0
time: 0.9590, EE(mH): -2.220446049250313e-13
time: 0.9600, EE(mH): 8.881784197001252e-13
time: 0.9610, EE(mH): 8.881784197001252e-13
time: 0.9620, EE(mH): 4.440892098500626e-13
time: 0.9630, EE(mH): -8.881784197001252e-13
time: 0.9640, EE(mH): 1.5543122344752192e-12
time: 0.9650, EE(mH): 8.881784197001252e-13
time: 0.9660, EE(mH): -8.881784197001252e-13
time: 0.9670, EE(mH): 8.881784197001252e-13
time: 0.9680, EE(mH): 8.881784197001252e-13
time: 0.9690, EE(mH): 0.0
time: 0.9700, EE(mH): -1.3322676295501878e-12
time: 0.9710, EE(mH): 2.220446049250313e-13
time: 0.9720, EE(mH): -1.3322676295501878e-12
time: 0.9730, EE(mH): 8.881784197001252e-13
time: 0.9740, EE(mH): 4.440892098500626e-13
time: 0.9750, EE(mH): 0.0
time: 0.9760, EE(mH): 0.0
time: 0.9770, EE(mH): -1.3322676295501878e-12
time: 0.9780, EE(mH): -8.881784197001252e-13
time: 0.9790, EE(mH): 0.0
time: 0.9800, EE(mH): 6.661338147750939e-13
time: 0.9810, EE(mH): 0.0
time: 0.9820, EE(mH): -4.440892098500626e-13
time: 0.9830, EE(mH): 4.440892098500626e-13
time: 0.9840, EE(mH): 0.0
time: 0.9850, EE(mH): 6.661338147750939e-13
time: 0.9860, EE(mH): -4.440892098500626e-13
time: 0.9870, EE(mH): 0.0
time: 0.9880, EE(mH): 0.0
time: 0.9890, EE(mH): -4.440892098500626e-13
time: 0.9900, EE(mH): 2.220446049250313e-13
time: 0.9910, EE(mH): 0.0
time: 0.9920, EE(mH): -2.220446049250313e-13
time: 0.9930, EE(mH): -2.220446049250313e-13
time: 0.9940, EE(mH): 6.661338147750939e-13
time: 0.9950, EE(mH): 4.440892098500626e-13
time: 0.9960, EE(mH): -4.440892098500626e-13
time: 0.9970, EE(mH): -8.881784197001252e-13
time: 0.9980, EE(mH): -2.220446049250313e-13
time: 0.9990, EE(mH): 0.0
time: 1.0000, EE(mH): 2.220446049250313e-13
trace error:  [0. 0.]
Ehrenfest error:  [0. 0.]
imaginary part of energy:  2.641983698531747e-16

#################### OCCD propagation ################
check initial energy: -1.0948079628605107
time: 0.0000, EE(mH): 0.0, X: 4.434259656682649e-08
time: 0.0010, EE(mH): -2.6645352591003757e-12, X: 5.330190080673604e-05
time: 0.0020, EE(mH): 3.3306690738754696e-12, X: 0.00010660386618518461
time: 0.0030, EE(mH): 2.398081733190338e-11, X: 0.0001599059519143542
time: 0.0040, EE(mH): 6.59472476627343e-11, X: 0.0002132082021951945
time: 0.0050, EE(mH): 1.3322676295501878e-10, X: 0.0002665106649136285
time: 0.0060, EE(mH): 2.3447910280083306e-10, X: 0.0003198133885649925
time: 0.0070, EE(mH): 3.7680969455777813e-10, X: 0.0003731164218133989
time: 0.0080, EE(mH): 5.651035195342047e-10, X: 0.00042641981338046984
time: 0.0090, EE(mH): 8.069100942975638e-10, X: 0.00047972361200728777
time: 0.0100, EE(mH): 1.107114400156206e-09, X: 0.0005330278664382645
time: 0.0110, EE(mH): 1.4728218644677327e-09, X: 0.0005863326254130476
time: 0.0120, EE(mH): 1.908917468540494e-09, X: 0.0006396379376616884
time: 0.0130, EE(mH): 2.425837308805967e-09, X: 0.0006929438519014029
time: 0.0140, EE(mH): 3.0251356974986265e-09, X: 0.0007462504168340847
time: 0.0150, EE(mH): 3.716138508025324e-09, X: 0.0007995576811441916
time: 0.0160, EE(mH): 4.50550707853381e-09, X: 0.0008528656934969317
time: 0.0170, EE(mH): 5.397904345727511e-09, X: 0.0009061745025365252
time: 0.0180, EE(mH): 6.401545959988653e-09, X: 0.0009594841568845603
time: 0.0190, EE(mH): 7.52109485802066e-09, X: 0.001012794705138445
time: 0.0200, EE(mH): 8.761436021131885e-09, X: 0.0010661061958698295
time: 0.0210, EE(mH): 1.0132561456543954e-08, X: 0.0011194186776231029
time: 0.0220, EE(mH): 1.1640022279379991e-08, X: 0.001172732198913881
time: 0.0230, EE(mH): 1.3288259381738499e-08, X: 0.0012260468082274977
time: 0.0240, EE(mH): 1.5086598637026327e-08, X: 0.0012793625540175391
time: 0.0250, EE(mH): 1.7037926625107502e-08, X: 0.0013326794847043622
time: 0.0260, EE(mH): 1.915134717478395e-08, X: 0.0013859976486735714
time: 0.0270, EE(mH): 2.1431301178154172e-08, X: 0.0014393170942746257
time: 0.0280, EE(mH): 2.3885338151785618e-08, X: 0.001492637869819287
time: 0.0290, EE(mH): 2.651967534461619e-08, X: 0.0015459600235802201
time: 0.0300, EE(mH): 2.9340974094793637e-08, X: 0.0015992836037894652
time: 0.0310, EE(mH): 3.235633982967556e-08, X: 0.0016526086586370493
time: 0.0320, EE(mH): 3.5569325262940765e-08, X: 0.0017059352362694283
time: 0.0330, EE(mH): 3.898881217878625e-08, X: 0.0017592633847881014
time: 0.0340, EE(mH): 4.261968555852036e-08, X: 0.001812593152248135
time: 0.0350, EE(mH): 4.64708271863401e-08, X: 0.001865924586656683
time: 0.0360, EE(mH): 5.054445750829473e-08, X: 0.0019192577359715534
time: 0.0370, EE(mH): 5.4850346487000934e-08, X: 0.001972592648099713
time: 0.0380, EE(mH): 5.939404523758185e-08, X: 0.002025929370895902
time: 0.0390, EE(mH): 6.418154896437045e-08, X: 0.0020792679521611335
time: 0.0400, EE(mH): 6.921929696090956e-08, X: 0.002132608439641183
time: 0.0410, EE(mH): 7.451395056534693e-08, X: 0.002185950881025302
time: 0.0420, EE(mH): 8.007083884820076e-08, X: 0.0022392953239445765
time: 0.0430, EE(mH): 8.589751132603851e-08, X: 0.0022926418159706424
time: 0.0440, EE(mH): 9.200018524779807e-08, X: 0.002345990404614108
time: 0.0450, EE(mH): 9.838596604083705e-08, X: 0.002399341137323175
time: 0.0460, EE(mH): 1.0505796232962439e-07, X: 0.002452694061482187
time: 0.0470, EE(mH): 1.120268322551965e-07, X: 0.0025060492244101803
time: 0.0480, EE(mH): 1.1929612853123217e-07, X: 0.00255940667335944
time: 0.0490, EE(mH): 1.2687317862969394e-07, X: 0.002612766455514053
time: 0.0500, EE(mH): 1.3476375571030985e-07, X: 0.0026661286179884675
time: 0.0510, EE(mH): 1.4297540928964736e-07, X: 0.0027194932078260874
time: 0.0520, EE(mH): 1.515130243490148e-07, X: 0.002772860271997743
time: 0.0530, EE(mH): 1.6038592676181906e-07, X: 0.002826229857400374
time: 0.0540, EE(mH): 1.6959544879568966e-07, X: 0.0028796020108555307
time: 0.0550, EE(mH): 1.79152248591663e-07, X: 0.0029329767791079426
time: 0.0560, EE(mH): 1.8906098908644253e-07, X: 0.002986354208824089
time: 0.0570, EE(mH): 1.993276654843612e-07, X: 0.003039734346590749
time: 0.0580, EE(mH): 2.0995982730198648e-07, X: 0.003093117238913666
time: 0.0590, EE(mH): 2.2096346974365133e-07, X: 0.0031465029322159123
time: 0.0600, EE(mH): 2.323452541475035e-07, X: 0.0031998914728367752
time: 0.0610, EE(mH): 2.4410917731643167e-07, X: 0.0032532829070299986
time: 0.0620, EE(mH): 2.5626634148068206e-07, X: 0.0033066772809626694
time: 0.0630, EE(mH): 2.6881741277406945e-07, X: 0.003360074640713494
time: 0.0640, EE(mH): 2.8177371547144503e-07, X: 0.003413475032271629
time: 0.0650, EE(mH): 2.9513747001885804e-07, X: 0.0034668785015351633
time: 0.0660, EE(mH): 3.0891733615590056e-07, X: 0.00352028509430964
time: 0.0670, EE(mH): 3.2311997522072033e-07, X: 0.0035736948563067734
time: 0.0680, EE(mH): 3.3775071628383557e-07, X: 0.0036271078331429484
time: 0.0690, EE(mH): 3.528159986387891e-07, X: 0.0036805240703378017
time: 0.0700, EE(mH): 3.6832226157912373e-07, X: 0.0037339436133128935
time: 0.0710, EE(mH): 3.842766105321971e-07, X: 0.0037873665073901663
time: 0.0720, EE(mH): 4.0068548479155197e-07, X: 0.003840792797790763
time: 0.0730, EE(mH): 4.175535472938918e-07, X: 0.0038942225296333234
time: 0.0740, EE(mH): 4.3488812551117917e-07, X: 0.003947655747932861
time: 0.0750, EE(mH): 4.5269743509379623e-07, X: 0.004001092497599192
time: 0.0760, EE(mH): 4.7098369648779226e-07, X: 0.0040545328234355815
time: 0.0770, EE(mH): 4.897569017003889e-07, X: 0.004107976770137376
time: 0.0780, EE(mH): 5.090212695790797e-07, X: 0.004161424382290614
time: 0.0790, EE(mH): 5.287847937296419e-07, X: 0.004214875704370529
time: 0.0800, EE(mH): 5.490512489103594e-07, X: 0.004268330780740361
time: 0.0810, EE(mH): 5.698317373514783e-07, X: 0.004321789655649775
time: 0.0820, EE(mH): 5.911271472314183e-07, X: 0.004375252373233506
time: 0.0830, EE(mH): 6.129468044235864e-07, X: 0.004428718977510184
time: 0.0840, EE(mH): 6.352960379985007e-07, X: 0.0044821895123806155
time: 0.0850, EE(mH): 6.581828415619384e-07, X: 0.00453566402162668
time: 0.0860, EE(mH): 6.816116560059982e-07, X: 0.004589142548909824
time: 0.0870, EE(mH): 7.055902528918523e-07, X: 0.004642625137769706
time: 0.0880, EE(mH): 7.301228510669944e-07, X: 0.004696111831622892
time: 0.0890, EE(mH): 7.552189984494362e-07, X: 0.0047496026737613335
time: 0.0900, EE(mH): 7.808815816190418e-07, X: 0.004803097707351188
time: 0.0910, EE(mH): 8.071183721369835e-07, X: 0.004856596975431294
time: 0.0920, EE(mH): 8.339373636090386e-07, X: 0.0049101005209119565
time: 0.0930, EE(mH): 8.613434410165155e-07, X: 0.0049636083865734065
time: 0.0940, EE(mH): 8.893414893407225e-07, X: 0.00501712061506462
time: 0.0950, EE(mH): 9.179417226334863e-07, X: 0.0050706372489018724
time: 0.0960, EE(mH): 9.471448070286215e-07, X: 0.005124158330467366
time: 0.0970, EE(mH): 9.769611786225596e-07, X: 0.005177683902007974
time: 0.0980, EE(mH): 1.007398831021078e-06, X: 0.005231214005633715
time: 0.0990, EE(mH): 1.0384599846702258e-06, X: 0.0052847486833166885
time: 0.1000, EE(mH): 1.0701517449973608e-06, X: 0.005338287976889444
time: 0.1010, EE(mH): 1.1024803292514207e-06, X: 0.005391831928043781
time: 0.1020, EE(mH): 1.1354552853504174e-06, X: 0.005445380578329503
time: 0.1030, EE(mH): 1.1690794998742149e-06, X: 0.005498933969152818
time: 0.1040, EE(mH): 1.2033600782501708e-06, X: 0.0055524921417752825
time: 0.1050, EE(mH): 1.2383050140840623e-06, X: 0.005606055137312307
time: 0.1060, EE(mH): 1.2739178600895684e-06, X: 0.005659622996731859
time: 0.1070, EE(mH): 1.3102070539616761e-06, X: 0.005713195760853223
time: 0.1080, EE(mH): 1.347177036592484e-06, X: 0.005766773470345547
time: 0.1090, EE(mH): 1.3848371338553989e-06, X: 0.005820356165726551
time: 0.1100, EE(mH): 1.4231917866425192e-06, X: 0.00587394388736138
time: 0.1110, EE(mH): 1.4622463240243633e-06, X: 0.005927536675461094
time: 0.1120, EE(mH): 1.5020089616513133e-06, X: 0.0059811345700813996
time: 0.1130, EE(mH): 1.5424843624600726e-06, X: 0.006034737611121374
time: 0.1140, EE(mH): 1.5836811861902333e-06, X: 0.006088345838322138
time: 0.1150, EE(mH): 1.6255998769310054e-06, X: 0.006141959291265663
time: 0.1160, EE(mH): 1.668257088027758e-06, X: 0.006195578009373333
time: 0.1170, EE(mH): 1.7116477124545781e-06, X: 0.0062492020319046115
time: 0.1180, EE(mH): 1.7557866271999956e-06, X: 0.006302831397955944
time: 0.1190, EE(mH): 1.8006760527100596e-06, X: 0.006356466146459342
time: 0.1200, EE(mH): 1.8463233164567328e-06, X: 0.0064101063161810965
time: 0.1210, EE(mH): 1.892734191599743e-06, X: 0.00646375194572047
time: 0.1220, EE(mH): 1.939916227655658e-06, X: 0.0065174030735085315
time: 0.1230, EE(mH): 1.9878736434719713e-06, X: 0.006571059737806765
time: 0.1240, EE(mH): 2.0366157649220895e-06, X: 0.006624721976705813
time: 0.1250, EE(mH): 2.0861463667642965e-06, X: 0.006678389828124322
time: 0.1260, EE(mH): 2.1364705560245056e-06, X: 0.0067320633298075016
time: 0.1270, EE(mH): 2.187599434932963e-06, X: 0.006785742519325997
time: 0.1280, EE(mH): 2.2395336696234835e-06, X: 0.006839427434074465
time: 0.1290, EE(mH): 2.2922848064155232e-06, X: 0.006893118111270528
time: 0.1300, EE(mH): 2.3458555098443412e-06, X: 0.006946814587953404
time: 0.1310, EE(mH): 2.4002519971588754e-06, X: 0.007000516900982633
time: 0.1320, EE(mH): 2.4554847044555572e-06, X: 0.007054225087036906
time: 0.1330, EE(mH): 2.5115545199128064e-06, X: 0.007107939182612635
time: 0.1340, EE(mH): 2.5684721016716594e-06, X: 0.007161659224023005
time: 0.1350, EE(mH): 2.6262396701781654e-06, X: 0.0072153852473965914
time: 0.1360, EE(mH): 2.684866995394941e-06, X: 0.007269117288675992
time: 0.1370, EE(mH): 2.7443576300356654e-06, X: 0.007322855383616761
time: 0.1380, EE(mH): 2.8047217881521647e-06, X: 0.007376599567786216
time: 0.1390, EE(mH): 2.865962578368908e-06, X: 0.007430349876562104
time: 0.1400, EE(mH): 2.9280859958902283e-06, X: 0.007484106345131293
time: 0.1410, EE(mH): 2.9910984800096685e-06, X: 0.007537869008488896
time: 0.1420, EE(mH): 3.055007802288401e-06, X: 0.007591637901436683
time: 0.1430, EE(mH): 3.119818625663129e-06, X: 0.007645413058582015
time: 0.1440, EE(mH): 3.1855389437396298e-06, X: 0.007699194514336705
time: 0.1450, EE(mH): 3.2521727533207923e-06, X: 0.007752982302915707
time: 0.1460, EE(mH): 3.3197307125476527e-06, X: 0.007806776458336048
time: 0.1470, EE(mH): 3.3882141536878407e-06, X: 0.00786057701441552
time: 0.1480, EE(mH): 3.4576317364809483e-06, X: 0.007914384004771435
time: 0.1490, EE(mH): 3.5279896781759135e-06, X: 0.0079681974628196
time: 0.1500, EE(mH): 3.5992928637540444e-06, X: 0.008022017421772968
time: 0.1510, EE(mH): 3.6715488427319087e-06, X: 0.008075843914640626
time: 0.1520, EE(mH): 3.744764498492259e-06, X: 0.00812967697422653
time: 0.1530, EE(mH): 3.8189451601056135e-06, X: 0.008183516633128269
time: 0.1540, EE(mH): 3.8940954905086755e-06, X: 0.008237362923735949
time: 0.1550, EE(mH): 3.970224371485642e-06, X: 0.008291215878231067
time: 0.1560, EE(mH): 4.047336688017822e-06, X: 0.008345075528585337
time: 0.1570, EE(mH): 4.125438879398757e-06, X: 0.008398941906559442
time: 0.1580, EE(mH): 4.2045371628773864e-06, X: 0.008452815043702077
time: 0.1590, EE(mH): 4.284640198193301e-06, X: 0.008506694971348441
time: 0.1600, EE(mH): 4.365749983747946e-06, X: 0.008560581720619562
time: 0.1610, EE(mH): 4.447874069057889e-06, X: 0.008614475322420712
time: 0.1620, EE(mH): 4.531020447728906e-06, X: 0.008668375807440582
time: 0.1630, EE(mH): 4.6151948929207265e-06, X: 0.008722283206149933
time: 0.1640, EE(mH): 4.700402289614658e-06, X: 0.00877619754880066
time: 0.1650, EE(mH): 4.7866492991488485e-06, X: 0.008830118865424473
time: 0.1660, EE(mH): 4.873944359218285e-06, X: 0.00888404718583194
time: 0.1670, EE(mH): 4.962291022536647e-06, X: 0.008937982539611177
time: 0.1680, EE(mH): 5.051695950442081e-06, X: 0.00899192495612693
time: 0.1690, EE(mH): 5.142165360183526e-06, X: 0.009045874464519411
time: 0.1700, EE(mH): 5.233705913099129e-06, X: 0.009099831093703045
time: 0.1710, EE(mH): 5.326324936660853e-06, X: 0.009153794872365523
time: 0.1720, EE(mH): 5.420026649716192e-06, X: 0.009207765828966711
time: 0.1730, EE(mH): 5.514819267915527e-06, X: 0.009261743991737433
time: 0.1740, EE(mH): 5.610706121927933e-06, X: 0.009315729388678484
time: 0.1750, EE(mH): 5.707695205359187e-06, X: 0.009369722047559571
time: 0.1760, EE(mH): 5.805794289770461e-06, X: 0.009423721995917941
time: 0.1770, EE(mH): 5.905008482187668e-06, X: 0.009477729261057787
time: 0.1780, EE(mH): 6.005343333725932e-06, X: 0.0095317438700488
time: 0.1790, EE(mH): 6.106803729366561e-06, X: 0.009585765849725137
time: 0.1800, EE(mH): 6.2093974406707275e-06, X: 0.009639795226684553
time: 0.1810, EE(mH): 6.313131351021184e-06, X: 0.009693832027287293
time: 0.1820, EE(mH): 6.418011455622263e-06, X: 0.00974787627765467
time: 0.1830, EE(mH): 6.524043971722904e-06, X: 0.009801928003668525
time: 0.1840, EE(mH): 6.631234450438228e-06, X: 0.009855987230969827
time: 0.1850, EE(mH): 6.739589775150989e-06, X: 0.0099100539849579
time: 0.1860, EE(mH): 6.849114164708681e-06, X: 0.009964128290789114
time: 0.1870, EE(mH): 6.95981561271708e-06, X: 0.010018210173376061
time: 0.1880, EE(mH): 7.071700114380519e-06, X: 0.010072299657386324
time: 0.1890, EE(mH): 7.184773886947937e-06, X: 0.010126396767241539
time: 0.1900, EE(mH): 7.299042703579062e-06, X: 0.01018050152711662
time: 0.1910, EE(mH): 7.4145132256120405e-06, X: 0.01023461396093826
time: 0.1920, EE(mH): 7.531191892340416e-06, X: 0.01028873409238428
time: 0.1930, EE(mH): 7.649083588745498e-06, X: 0.010342861944882476
time: 0.1940, EE(mH): 7.768194976165432e-06, X: 0.01039699754160972
time: 0.1950, EE(mH): 7.888534714339812e-06, X: 0.010451140905490814
time: 0.1960, EE(mH): 8.010105911893106e-06, X: 0.010505292059197565
time: 0.1970, EE(mH): 8.132915230163462e-06, X: 0.010559451025147756
time: 0.1980, EE(mH): 8.256969552533633e-06, X: 0.01061361782550426
time: 0.1990, EE(mH): 8.382274430118741e-06, X: 0.010667792482174051
time: 0.2000, EE(mH): 8.50883541403391e-06, X: 0.010721975016807026
time: 0.2010, EE(mH): 8.636662940375572e-06, X: 0.010776165450795261
time: 0.2020, EE(mH): 8.765757675277541e-06, X: 0.010830363805271932
time: 0.2030, EE(mH): 8.896129166657829e-06, X: 0.010884570101110377
time: 0.2040, EE(mH): 9.02778074518551e-06, X: 0.010938784358922999
time: 0.2050, EE(mH): 9.160722846957015e-06, X: 0.010993006599060762
time: 0.2060, EE(mH): 9.294956360150763e-06, X: 0.011047236841611645
time: 0.2070, EE(mH): 9.430492386997003e-06, X: 0.011101475106400138
time: 0.2080, EE(mH): 9.567332259763361e-06, X: 0.011155721412985885
time: 0.2090, EE(mH): 9.705485970457062e-06, X: 0.011209975780663189
time: 0.2100, EE(mH): 9.844958182014807e-06, X: 0.011264238228460012
time: 0.2110, EE(mH): 9.98575533373014e-06, X: 0.01131850877513666
time: 0.2120, EE(mH): 1.0127883420807393e-05, X: 0.011372787439185347
time: 0.2130, EE(mH): 1.027135021480774e-05, X: 0.011427074238828801
time: 0.2140, EE(mH): 1.0416159046400253e-05, X: 0.011481369192019798
time: 0.2150, EE(mH): 1.0562316576923081e-05, X: 0.01153567231644008
time: 0.2160, EE(mH): 1.0709830799982e-05, X: 0.011589983629499286
time: 0.2170, EE(mH): 1.0858706822602926e-05, X: 0.0116443031483343
time: 0.2180, EE(mH): 1.100894930772256e-05, X: 0.01169863088980835
time: 0.2190, EE(mH): 1.116056580485747e-05, X: 0.011752966870509682
time: 0.2200, EE(mH): 1.1313564307613433e-05, X: 0.011807311106751395
time: 0.2210, EE(mH): 1.146794570416887e-05, X: 0.011861663614569954
time: 0.2220, EE(mH): 1.1623721540843235e-05, X: 0.011916024409724765
time: 0.2230, EE(mH): 1.1780897146707048e-05, X: 0.011970393507696858
time: 0.2240, EE(mH): 1.1939475186295567e-05, X: 0.012024770923688274
time: 0.2250, EE(mH): 1.2099463875259175e-05, X: 0.012079156672621308
time: 0.2260, EE(mH): 1.2260868320623786e-05, X: 0.012133550769137476
time: 0.2270, EE(mH): 1.242369851439662e-05, X: 0.01218795322759668
time: 0.2280, EE(mH): 1.2587954678622282e-05, X: 0.01224236406207639
time: 0.2290, EE(mH): 1.2753647471441809e-05, X: 0.012296783286370964
time: 0.2300, EE(mH): 1.29207813337473e-05, X: 0.012351210913990418
time: 0.2310, EE(mH): 1.3089364703233741e-05, X: 0.012405646958160065
time: 0.2320, EE(mH): 1.3259398912168763e-05, X: 0.01246009143181922
time: 0.2330, EE(mH): 1.3430891732113537e-05, X: 0.012514544347620837
time: 0.2340, EE(mH): 1.3603850490540026e-05, X: 0.01256900571793037
time: 0.2350, EE(mH): 1.3778281626741773e-05, X: 0.012623475554825162
time: 0.2360, EE(mH): 1.3954190025700086e-05, X: 0.012677953870093383
time: 0.2370, EE(mH): 1.4131583903065348e-05, X: 0.012732440675233606
time: 0.2380, EE(mH): 1.4310466145417422e-05, X: 0.012786935981453619
time: 0.2390, EE(mH): 1.4490844080228271e-05, X: 0.012841439799669875
time: 0.2400, EE(mH): 1.4672724590880648e-05, X: 0.012895952140506753
time: 0.2410, EE(mH): 1.4856111896222046e-05, X: 0.012950473014295484
time: 0.2420, EE(mH): 1.5041015100081268e-05, X: 0.013005002431073661
time: 0.2430, EE(mH): 1.5227437089038176e-05, X: 0.013059540400584381
time: 0.2440, EE(mH): 1.5415386078743154e-05, X: 0.013114086932275441
time: 0.2450, EE(mH): 1.5604867620311325e-05, X: 0.01316864203529859
time: 0.2460, EE(mH): 1.5795887930991626e-05, X: 0.013223205718508909
time: 0.2470, EE(mH): 1.5988452339854575e-05, X: 0.01327777799046381
time: 0.2480, EE(mH): 1.6182566842104507e-05, X: 0.013332358859422298
time: 0.2490, EE(mH): 1.6378236544767333e-05, X: 0.01338694833334477
time: 0.2500, EE(mH): 1.657547121780567e-05, X: 0.01344154641989147
time: 0.2510, EE(mH): 1.6774275080067014e-05, X: 0.013496153126422364
time: 0.2520, EE(mH): 1.6974650574042016e-05, X: 0.013550768459996141
time: 0.2530, EE(mH): 1.717660813582711e-05, X: 0.01360539242736959
time: 0.2540, EE(mH): 1.7380153094492812e-05, X: 0.013660025034996717
time: 0.2550, EE(mH): 1.7585291889332666e-05, X: 0.013714666289028458
time: 0.2560, EE(mH): 1.7792027406926536e-05, X: 0.013769316195311491
time: 0.2570, EE(mH): 1.8000368307014014e-05, X: 0.013823974759387766
time: 0.2580, EE(mH): 1.8210320584799433e-05, X: 0.013878641986493873
time: 0.2590, EE(mH): 1.8421888015041077e-05, X: 0.013933317881560152
time: 0.2600, EE(mH): 1.8635079701567747e-05, X: 0.013988002449210219
time: 0.2610, EE(mH): 1.8849901639583777e-05, X: 0.014042695693760118
time: 0.2620, EE(mH): 1.9066356493624426e-05, X: 0.014097397619217921
time: 0.2630, EE(mH): 1.9284452923429285e-05, X: 0.01415210822928257
time: 0.2640, EE(mH): 1.9504197368291898e-05, X: 0.01420682752734376
time: 0.2650, EE(mH): 1.972559227070292e-05, X: 0.014261555516480926
time: 0.2660, EE(mH): 1.9948648732892593e-05, X: 0.014316292199462746
time: 0.2670, EE(mH): 2.0173368309173156e-05, X: 0.014371037578746344
time: 0.2680, EE(mH): 2.039976099155183e-05, X: 0.01442579165647705
time: 0.2690, EE(mH): 2.0627827668207033e-05, X: 0.01448055443448714
time: 0.2700, EE(mH): 2.0857578553190592e-05, X: 0.014535325914295716
time: 0.2710, EE(mH): 2.1089018975573026e-05, X: 0.014590106097107878
time: 0.2720, EE(mH): 2.1322152932157223e-05, X: 0.01464489498381407
time: 0.2730, EE(mH): 2.155698886063817e-05, X: 0.014699692574989761
time: 0.2740, EE(mH): 2.1793530757818758e-05, X: 0.014754498870894292
time: 0.2750, EE(mH): 2.203178661730476e-05, X: 0.014809313871470737
time: 0.2760, EE(mH): 2.2271760657943673e-05, X: 0.014864137576345207
time: 0.2770, EE(mH): 2.2513459541073644e-05, X: 0.014918969984826086
time: 0.2780, EE(mH): 2.275688815167598e-05, X: 0.014973811095903752
time: 0.2790, EE(mH): 2.300205537153488e-05, X: 0.015028660908249633
time: 0.2800, EE(mH): 2.324896430927481e-05, X: 0.015083519420215864
time: 0.2810, EE(mH): 2.3497620293966293e-05, X: 0.015138386629834607
time: 0.2820, EE(mH): 2.3748033761705756e-05, X: 0.015193262534817687
time: 0.2830, EE(mH): 2.400020426840399e-05, X: 0.015248147132555642
time: 0.2840, EE(mH): 2.425414313833585e-05, X: 0.015303040420117662
time: 0.2850, EE(mH): 2.4509855034438033e-05, X: 0.015357942394250644
time: 0.2860, EE(mH): 2.4767344175558037e-05, X: 0.015412853051378959
time: 0.2870, EE(mH): 2.502661722303401e-05, X: 0.015467772387603468
time: 0.2880, EE(mH): 2.5287681282293306e-05, X: 0.015522700398701355
time: 0.2890, EE(mH): 2.5550541238317237e-05, X: 0.015577637080125861
time: 0.2900, EE(mH): 2.581520375244395e-05, X: 0.015632582427004854
time: 0.2910, EE(mH): 2.6081672377387122e-05, X: 0.015687536434141218
time: 0.2920, EE(mH): 2.634995688310937e-05, X: 0.01574249909601198
time: 0.2930, EE(mH): 2.6620059045967537e-05, X: 0.015797470406767693
time: 0.2940, EE(mH): 2.6891988635924235e-05, X: 0.01585245036023225
time: 0.2950, EE(mH): 2.7165749205693146e-05, X: 0.015907438949902142
time: 0.2960, EE(mH): 2.7441347416612416e-05, X: 0.01596243616894578
time: 0.2970, EE(mH): 2.7718789930020193e-05, X: 0.016017442010203737
time: 0.2980, EE(mH): 2.7998079410451737e-05, X: 0.01607245646618728
time: 0.2990, EE(mH): 2.8279225183780454e-05, X: 0.016127479529078774
time: 0.3000, EE(mH): 2.8562232134987653e-05, X: 0.01618251119073082
time: 0.3010, EE(mH): 2.884710692541148e-05, X: 0.016237551442665504
time: 0.3020, EE(mH): 2.9133852219587197e-05, X: 0.01629260027607475
time: 0.3030, EE(mH): 2.942247911974505e-05, X: 0.016347657681819124
time: 0.3040, EE(mH): 2.971298829201885e-05, X: 0.016402723650427584
time: 0.3050, EE(mH): 3.00053888402374e-05, X: 0.016457798172097325
time: 0.3060, EE(mH): 3.029968542733741e-05, X: 0.016512881236692784
time: 0.3070, EE(mH): 3.05958838264786e-05, X: 0.01656797283374589
time: 0.3080, EE(mH): 3.0893990032865304e-05, X: 0.016623072952455218
time: 0.3090, EE(mH): 3.11940118180587e-05, X: 0.01667818158168567
time: 0.3100, EE(mH): 3.1495951180460224e-05, X: 0.016733298709967828
time: 0.3110, EE(mH): 3.179981833412171e-05, X: 0.016788424325497948
time: 0.3120, EE(mH): 3.2105615055399994e-05, X: 0.016843558416137442
time: 0.3130, EE(mH): 3.241334955994546e-05, X: 0.016898700969412445
time: 0.3140, EE(mH): 3.272302739887323e-05, X: 0.016953851972513118
time: 0.3150, EE(mH): 3.303465545556605e-05, X: 0.017009011412293894
time: 0.3160, EE(mH): 3.334823706069301e-05, X: 0.017064179275272616
time: 0.3170, EE(mH): 3.366377887559224e-05, X: 0.01711935554763018
time: 0.3180, EE(mH): 3.398128667342348e-05, X: 0.01717454021521034
time: 0.3190, EE(mH): 3.43007682257479e-05, X: 0.01722973326351957
time: 0.3200, EE(mH): 3.462222775141299e-05, X: 0.01728493467772616
time: 0.3210, EE(mH): 3.494566946926625e-05, X: 0.017340144442660015
time: 0.3220, EE(mH): 3.5271102927225684e-05, X: 0.017395362542812765
time: 0.3230, EE(mH): 3.5598531233915764e-05, X: 0.017450588962336942
time: 0.3240, EE(mH): 3.5927960384540825e-05, X: 0.017505823685045805
time: 0.3250, EE(mH): 3.625939726248362e-05, X: 0.01756106669441288
time: 0.3260, EE(mH): 3.6592846530680845e-05, X: 0.01761631797357201
time: 0.3270, EE(mH): 3.6928315294559866e-05, X: 0.017671577505316567
time: 0.3280, EE(mH): 3.7265807772968174e-05, X: 0.017726845272099393
time: 0.3290, EE(mH): 3.760533084928852e-05, X: 0.017782121256032627
time: 0.3300, EE(mH): 3.794688963054682e-05, X: 0.01783740543888705
time: 0.3310, EE(mH): 3.829049033399201e-05, X: 0.017892697802092135
time: 0.3320, EE(mH): 3.863613828869461e-05, X: 0.017947998326735576
time: 0.3330, EE(mH): 3.898383904576974e-05, X: 0.018003306993562763
time: 0.3340, EE(mH): 3.933360037677858e-05, X: 0.018058623782977106
time: 0.3350, EE(mH): 3.96854260564794e-05, X: 0.01811394867503944
time: 0.3360, EE(mH): 4.0039322968254965e-05, X: 0.018169281649467413
time: 0.3370, EE(mH): 4.039529599708658e-05, X: 0.018224622685635735
time: 0.3380, EE(mH): 4.075335047204476e-05, X: 0.01827997176257587
time: 0.3390, EE(mH): 4.111349327651226e-05, X: 0.018335328858975625
time: 0.3400, EE(mH): 4.147572951751499e-05, X: 0.018390693953178706
time: 0.3410, EE(mH): 4.184006496821269e-05, X: 0.018446067023184957
time: 0.3420, EE(mH): 4.220650540176507e-05, X: 0.01850144804664964
time: 0.3430, EE(mH): 4.257505636928727e-05, X: 0.018556837000883956
time: 0.3440, EE(mH): 4.294572386598361e-05, X: 0.018612233862853617
time: 0.3450, EE(mH): 4.3318514109103035e-05, X: 0.018667638609179915
time: 0.3460, EE(mH): 4.369343287180527e-05, X: 0.018723051216138424
time: 0.3470, EE(mH): 4.407048459498242e-05, X: 0.018778471659659807
time: 0.3480, EE(mH): 4.444967527383881e-05, X: 0.018833899915328592
time: 0.3490, EE(mH): 4.483101090357877e-05, X: 0.018889335958384042
time: 0.3500, EE(mH): 4.5214498367585065e-05, X: 0.018944779763718857
time: 0.3510, EE(mH): 4.560013922016992e-05, X: 0.019000231305880102
time: 0.3520, EE(mH): 4.598794678400964e-05, X: 0.01905569055906787
time: 0.3530, EE(mH): 4.6377919060702766e-05, X: 0.019111157497136093
time: 0.3540, EE(mH): 4.677006515407811e-05, X: 0.019166632093592054
time: 0.3550, EE(mH): 4.7164390615250795e-05, X: 0.019222114321596002
time: 0.3560, EE(mH): 4.756090188351436e-05, X: 0.019277604153961132
time: 0.3570, EE(mH): 4.79596029556717e-05, X: 0.019333101563153633
time: 0.3580, EE(mH): 4.8360500493060954e-05, X: 0.019388606521292137
time: 0.3590, EE(mH): 4.8763598936574226e-05, X: 0.01944411900014809
time: 0.3600, EE(mH): 4.916890583572808e-05, X: 0.019499638971145237
time: 0.3610, EE(mH): 4.957642696368225e-05, X: 0.019555166405359415
time: 0.3620, EE(mH): 4.998616320861515e-05, X: 0.019610701273519052
time: 0.3630, EE(mH): 5.039812611684624e-05, X: 0.01966624354600427
time: 0.3640, EE(mH): 5.0812318574955384e-05, X: 0.019721793192847142
time: 0.3650, EE(mH): 5.122874657814691e-05, X: 0.01977735018373192
time: 0.3660, EE(mH): 5.1647417453892785e-05, X: 0.01983291448799408
time: 0.3670, EE(mH): 5.206833408877287e-05, X: 0.0198884860746212
time: 0.3680, EE(mH): 5.249150270003611e-05, X: 0.019944064912251987
time: 0.3690, EE(mH): 5.2916930171065246e-05, X: 0.019999650969177194
time: 0.3700, EE(mH): 5.334462116479699e-05, X: 0.020055244213338347
time: 0.3710, EE(mH): 5.377458256461409e-05, X: 0.02011084461232844
time: 0.3720, EE(mH): 5.420681792323023e-05, X: 0.020166452133392247
time: 0.3730, EE(mH): 5.464133412402816e-05, X: 0.02022206674342503
time: 0.3740, EE(mH): 5.5078136718123005e-05, X: 0.02027768840897354
time: 0.3750, EE(mH): 5.5517229924362255e-05, X: 0.020333317096235544
time: 0.3760, EE(mH): 5.595862084817327e-05, X: 0.020388952771060058
time: 0.3770, EE(mH): 5.6402316150894194e-05, X: 0.020444595398946816
time: 0.3780, EE(mH): 5.684831805297108e-05, X: 0.020500244945046608
time: 0.3790, EE(mH): 5.7296634992098916e-05, X: 0.02055590137416125
time: 0.3800, EE(mH): 5.774727185325901e-05, X: 0.02061156465074351
time: 0.3810, EE(mH): 5.820023374347727e-05, X: 0.020667234738896846
time: 0.3820, EE(mH): 5.865552377137817e-05, X: 0.020722911602376107
time: 0.3830, EE(mH): 5.911315303919196e-05, X: 0.020778595204586484
time: 0.3840, EE(mH): 5.957312332327547e-05, X: 0.02083428550858425
time: 0.3850, EE(mH): 6.0035441507011456e-05, X: 0.020889982477076782
time: 0.3860, EE(mH): 6.05001111431136e-05, X: 0.020945686072422236
time: 0.3870, EE(mH): 6.096713933700926e-05, X: 0.021001396256629737
time: 0.3880, EE(mH): 6.143653341617039e-05, X: 0.021057112991359164
time: 0.3890, EE(mH): 6.190829493490924e-05, X: 0.021112836237921827
time: 0.3900, EE(mH): 6.238243055456394e-05, X: 0.021168565957279575
time: 0.3910, EE(mH): 6.285895048918633e-05, X: 0.021224302110045695
time: 0.3920, EE(mH): 6.333785318446417e-05, X: 0.021280044656484143
time: 0.3930, EE(mH): 6.381914730013705e-05, X: 0.021335793556510746
time: 0.3940, EE(mH): 6.430284016367693e-05, X: 0.02139154876969182
time: 0.3950, EE(mH): 6.478893421757448e-05, X: 0.021447310255245204
time: 0.3960, EE(mH): 6.527743634521244e-05, X: 0.02150307797204041
time: 0.3970, EE(mH): 6.576835165361672e-05, X: 0.02155885187859799
time: 0.3980, EE(mH): 6.626168613799166e-05, X: 0.021614631933089875
time: 0.3990, EE(mH): 6.675744534945238e-05, X: 0.021670418093340135
time: 0.4000, EE(mH): 6.72556341729802e-05, X: 0.021726210316823893
time: 0.4010, EE(mH): 6.775625838173482e-05, X: 0.02178200856066843
time: 0.4020, EE(mH): 6.825932219456377e-05, X: 0.02183781278165284
time: 0.4030, EE(mH): 6.87648336050728e-05, X: 0.021893622936208102
time: 0.4040, EE(mH): 6.92727968321094e-05, X: 0.021949438980417135
time: 0.4050, EE(mH): 6.978321720474412e-05, X: 0.022005260870015354
time: 0.4060, EE(mH): 7.02960978316014e-05, X: 0.02206108856039036
time: 0.4070, EE(mH): 7.081144937082229e-05, X: 0.02211692200658218
time: 0.4080, EE(mH): 7.132927204445139e-05, X: 0.022172761163283455
time: 0.4090, EE(mH): 7.184957473427289e-05, X: 0.02222860598483961
time: 0.4100, EE(mH): 7.237236010482206e-05, X: 0.02228445642524878
time: 0.4110, EE(mH): 7.289763503948166e-05, X: 0.022340312438162282
time: 0.4120, EE(mH): 7.342540730981284e-05, X: 0.02239617397688439
time: 0.4130, EE(mH): 7.395567847012785e-05, X: 0.022452040994372924
time: 0.4140, EE(mH): 7.448845518176483e-05, X: 0.022507913443239134
time: 0.4150, EE(mH): 7.502374188561589e-05, X: 0.022563791275748042
time: 0.4160, EE(mH): 7.556154812959903e-05, X: 0.022619674443818138
time: 0.4170, EE(mH): 7.610187435780347e-05, X: 0.022675562899022318
time: 0.4180, EE(mH): 7.664472723156734e-05, X: 0.02273145659258774
time: 0.4190, EE(mH): 7.719011518858565e-05, X: 0.022787355475395458
time: 0.4200, EE(mH): 7.77380386729476e-05, X: 0.02284325949798184
time: 0.4210, EE(mH): 7.828850590030356e-05, X: 0.022899168610537462
time: 0.4220, EE(mH): 7.884152219972407e-05, X: 0.022955082762908235
time: 0.4230, EE(mH): 7.939709378845805e-05, X: 0.023011001904595353
time: 0.4240, EE(mH): 7.995522288695156e-05, X: 0.023066925984755234
time: 0.4250, EE(mH): 8.051591771085498e-05, X: 0.023122854952200053
time: 0.4260, EE(mH): 8.107918203492659e-05, X: 0.02317878875539803
time: 0.4270, EE(mH): 8.164502318663835e-05, X: 0.02323472734247348
time: 0.4280, EE(mH): 8.221344316439172e-05, X: 0.023290670661206853
time: 0.4290, EE(mH): 8.278445129406009e-05, X: 0.023346618659035694
time: 0.4300, EE(mH): 8.335804801973268e-05, X: 0.023402571283054056
time: 0.4310, EE(mH): 8.393424355546131e-05, X: 0.023458528480013393
time: 0.4320, EE(mH): 8.451303967760282e-05, X: 0.023514490196322263
time: 0.4330, EE(mH): 8.509444304749536e-05, X: 0.023570456378047104
time: 0.4340, EE(mH): 8.567845988238787e-05, X: 0.023626426970912457
time: 0.4350, EE(mH): 8.626509373499402e-05, X: 0.023682401920300963
time: 0.4360, EE(mH): 8.685435060051816e-05, X: 0.0237383811712537
time: 0.4370, EE(mH): 8.744623580803079e-05, X: 0.023794364668470427
time: 0.4380, EE(mH): 8.804075535273626e-05, X: 0.023850352356310195
time: 0.4390, EE(mH): 8.863791300939283e-05, X: 0.02390634417879176
time: 0.4400, EE(mH): 8.923771543933867e-05, X: 0.023962340079593046
time: 0.4410, EE(mH): 8.984016663937666e-05, X: 0.02401834000205205
time: 0.4420, EE(mH): 9.044527038426509e-05, X: 0.024074343889167547
time: 0.4430, EE(mH): 9.105303711010038e-05, X: 0.024130351683598547
time: 0.4440, EE(mH): 9.166346748301635e-05, X: 0.024186363327665324
time: 0.4450, EE(mH): 9.227656638799431e-05, X: 0.024242378763349094
time: 0.4460, EE(mH): 9.289234315090766e-05, X: 0.024298397932293086
time: 0.4470, EE(mH): 9.351079999220246e-05, X: 0.02435442077580255
time: 0.4480, EE(mH): 9.413194135277081e-05, X: 0.024410447234844666
time: 0.4490, EE(mH): 9.475577567030768e-05, X: 0.024466477250049745
time: 0.4500, EE(mH): 9.53823033889023e-05, X: 0.024522510761710945
time: 0.4510, EE(mH): 9.601153383442806e-05, X: 0.02457854770978471
time: 0.4520, EE(mH): 9.664347322413391e-05, X: 0.02463458803389177
time: 0.4530, EE(mH): 9.727812244619827e-05, X: 0.024690631673316345
time: 0.4540, EE(mH): 9.791548771787006e-05, X: 0.02474667856700774
time: 0.4550, EE(mH): 9.855557614457666e-05, X: 0.024802728653579863
time: 0.4560, EE(mH): 9.919839150107634e-05, X: 0.024858781871312154
time: 0.4570, EE(mH): 9.984393845030581e-05, X: 0.024914838158149582
time: 0.4580, EE(mH): 0.00010049222520791545, X: 0.02497089745170344
time: 0.4590, EE(mH): 0.00010114325199594987, X: 0.02502695968925121
time: 0.4600, EE(mH): 0.00010179702636392562, X: 0.025083024807737473
time: 0.4610, EE(mH): 0.00010245355697158232, X: 0.02513909274377431
time: 0.4620, EE(mH): 0.00010311284315278613, X: 0.025195163433641404
time: 0.4630, EE(mH): 0.00010377489312318744, X: 0.025251236813286573
time: 0.4640, EE(mH): 0.00010443971021345533, X: 0.025307312818326502
time: 0.4650, EE(mH): 0.00010510730108492794, X: 0.02536339138404639
time: 0.4660, EE(mH): 0.0001057776710666758, X: 0.025419472445401565
time: 0.4670, EE(mH): 0.00010645082482163559, X: 0.025475555937016926
time: 0.4680, EE(mH): 0.00010712676612456562, X: 0.025531641793188023
time: 0.4690, EE(mH): 0.00010780550230293784, X: 0.02558772994788075
time: 0.4700, EE(mH): 0.00010848703624333211, X: 0.025643820334733024
time: 0.4710, EE(mH): 0.00010917137438504199, X: 0.025699912887053915
time: 0.4720, EE(mH): 0.00010985852116895956, X: 0.025756007537825087
time: 0.4730, EE(mH): 0.00011054848236824455, X: 0.025812104219700788
time: 0.4740, EE(mH): 0.00011124126131356604, X: 0.025868202865008693
time: 0.4750, EE(mH): 0.00011193686511035139, X: 0.0259243034057499
time: 0.4760, EE(mH): 0.00011263529930971572, X: 0.02598040577359961
time: 0.4770, EE(mH): 0.00011333656524392666, X: 0.026036509899908307
time: 0.4780, EE(mH): 0.00011404067024045617, X: 0.02609261571570098
time: 0.4790, EE(mH): 0.00011474761896224095, X: 0.026148723151678543
time: 0.4800, EE(mH): 0.00011545741962493139, X: 0.026204832138218313
time: 0.4810, EE(mH): 0.00011617007089625986, X: 0.026260942605374246
time: 0.4820, EE(mH): 0.00011688558210209976, X: 0.02631705448287733
time: 0.4830, EE(mH): 0.00011760395879356622, X: 0.02637316770013654
time: 0.4840, EE(mH): 0.00011832520252497147, X: 0.02642928218623901
time: 0.4850, EE(mH): 0.00011904932195605511, X: 0.026485397869951
time: 0.4860, EE(mH): 0.00011977631952930778, X: 0.026541514679717736
time: 0.4870, EE(mH): 0.00012050620146197843, X: 0.02659763254366464
time: 0.4880, EE(mH): 0.00012123897330518218, X: 0.02665375138959766
time: 0.4890, EE(mH): 0.00012197463572505285, X: 0.02670987114500381
time: 0.4900, EE(mH): 0.0001227132004899545, X: 0.026765991737051173
time: 0.4910, EE(mH): 0.00012345466671170868, X: 0.026822113092590763
time: 0.4920, EE(mH): 0.0001241990417177874, X: 0.026878235138156032
time: 0.4930, EE(mH): 0.00012494633150339496, X: 0.026934357799963508
time: 0.4940, EE(mH): 0.0001256965376228436, X: 0.026990481003914026
time: 0.4950, EE(mH): 0.00012644966851382833, X: 0.027046604675592445
time: 0.4960, EE(mH): 0.00012720572639679517, X: 0.027102728740269196
time: 0.4970, EE(mH): 0.00012796471948739452, X: 0.027158853122900027
time: 0.4980, EE(mH): 0.0001287266497840278, X: 0.027214977748127037
time: 0.4990, EE(mH): 0.00012949152017327492, X: 0.027271102540279375
time: 0.5000, EE(mH): 0.00013025934064714306, X: 0.02732722742337337
time: 0.5010, EE(mH): 0.0001310301143142567, X: 0.027383352321113885
time: 0.5020, EE(mH): 0.00013180384517141874, X: 0.027439477156894067
time: 0.5030, EE(mH): 0.00013258053810361048, X: 0.02749560185379667
time: 0.5040, EE(mH): 0.0001333601968855902, X: 0.02755172633459445
time: 0.5050, EE(mH): 0.0001341428299550529, X: 0.027607850521750552
time: 0.5060, EE(mH): 0.00013492843864426618, X: 0.02766397433741982
time: 0.5070, EE(mH): 0.0001357170289484344, X: 0.02772009770344834
time: 0.5080, EE(mH): 0.00013650860641867268, X: 0.027776220541375237
[...]
time: 0.7100, EE(mH): 0.00036379485379711696, X: 0.03897321177320539
time: 0.7110, EE(mH): 0.00036528106894806456, X: 0.039027228381556346
time: 0.7120, EE(mH): 0.00036677107950744414, X: 0.039081223280669604
time: 0.7130, EE(mH): 0.00036826488769570176, X: 0.03913519634888908
time: 0.7140, EE(mH): 0.0003697624970655511, X: 0.039189147464470594
time: 0.7150, EE(mH): 0.00037126390828312594, X: 0.03924307650558147
time: 0.7160, EE(mH): 0.00037276912756567526, X: 0.03929698335030432
time: 0.7170, EE(mH): 0.000374278153802976, X: 0.03935086787663642
time: 0.7180, EE(mH): 0.0003757909943225002, X: 0.039404729962492335
time: 0.7190, EE(mH): 0.00037730764845811393, X: 0.039458569485704656
time: 0.7200, EE(mH): 0.00037882812087275397, X: 0.0395123863240257
time: 0.7210, EE(mH): 0.0003803524148970894, X: 0.03956618035512888
time: 0.7220, EE(mH): 0.00038188053141929856, X: 0.039619951456609674
time: 0.7230, EE(mH): 0.00038341247643458587, X: 0.03967369950598785
time: 0.7240, EE(mH): 0.0003849482494988621, X: 0.03972742438070821
time: 0.7250, EE(mH): 0.00038648785372075167, X: 0.03978112595814194
time: 0.7260, EE(mH): 0.00038803129465136976, X: 0.03983480411558873
time: 0.7270, EE(mH): 0.00038957857206867175, X: 0.0398884587302771
time: 0.7280, EE(mH): 0.00039112969130172814, X: 0.039942089679366875
time: 0.7290, EE(mH): 0.0003926846532387174, X: 0.03999569683994988
time: 0.7300, EE(mH): 0.0003942434616543977, X: 0.04004928008905157
time: 0.7310, EE(mH): 0.00039580611987943826, X: 0.040102839303632655
time: 0.7320, EE(mH): 0.0003973726294681512, X: 0.04015637436059012
time: 0.7330, EE(mH): 0.00039894299241893805, X: 0.04020988513675855
time: 0.7340, EE(mH): 0.00040051721383882466, X: 0.04026337150891255
time: 0.7350, EE(mH): 0.0004020952948380341, X: 0.04031683335376717
time: 0.7360, EE(mH): 0.00040367723785905696, X: 0.04037027054797893
time: 0.7370, EE(mH): 0.0004052630471207408, X: 0.04042368296814872
time: 0.7380, EE(mH): 0.00040685272484353163, X: 0.04047707049082224
time: 0.7390, EE(mH): 0.0004084462721376525, X: 0.040530432992491296
time: 0.7400, EE(mH): 0.0004100436938880847, X: 0.04058377034959576
time: 0.7410, EE(mH): 0.00041164498942869443, X: 0.04063708243852473
time: 0.7420, EE(mH): 0.00041325016653104285, X: 0.04069036913561763
time: 0.7430, EE(mH): 0.0004148592234187731, X: 0.04074363031716673
time: 0.7440, EE(mH): 0.00041647216519891117, X: 0.04079686585941733
time: 0.7450, EE(mH): 0.000418088991871457, X: 0.04085007563856976
time: 0.7460, EE(mH): 0.00041970970743321345, X: 0.0409032595307808
time: 0.7470, EE(mH): 0.00042133431588098347, X: 0.0409564174121652
time: 0.7480, EE(mH): 0.00042296281899112387, X: 0.041009549158797065
time: 0.7490, EE(mH): 0.0004245952180959023, X: 0.04106265464671065
time: 0.7500, EE(mH): 0.0004262315180803, X: 0.04111573375190305
time: 0.7510, EE(mH): 0.00042787171850022787, X: 0.041168786350334725
time: 0.7520, EE(mH): 0.00042951582401862254, X: 0.04122181231793133
time: 0.7530, EE(mH): 0.00043116383485752863, X: 0.041274811530584495
time: 0.7540, EE(mH): 0.00043281575701215047, X: 0.041327783864154755
time: 0.7550, EE(mH): 0.00043447159048248807, X: 0.04138072919447103
time: 0.7560, EE(mH): 0.0004361313385992105, X: 0.04143364739733377
time: 0.7570, EE(mH): 0.0004377950035827638, X: 0.04148653834851543
time: 0.7580, EE(mH): 0.00043946258787563863, X: 0.04153940192376256
time: 0.7590, EE(mH): 0.00044113409325419184, X: 0.041592237998796334
time: 0.7600, EE(mH): 0.0004428095246034047, X: 0.041645046449315104
time: 0.7610, EE(mH): 0.0004444888834775895, X: 0.04169782715099483
time: 0.7620, EE(mH): 0.0004461721685444786, X: 0.04175057997949186
time: 0.7630, EE(mH): 0.0004478593857992763, X: 0.04180330481044292
time: 0.7640, EE(mH): 0.0004495505372403841, X: 0.04185600151946697
time: 0.7650, EE(mH): 0.00045124562508824795, X: 0.04190866998216787
time: 0.7660, EE(mH): 0.00045294465089718017, X: 0.04196131007413405
time: 0.7670, EE(mH): 0.0004546476186639836, X: 0.04201392167094129
time: 0.7680, EE(mH): 0.0004563545281666137, X: 0.04206650464815346
time: 0.7690, EE(mH): 0.00045806538473414093, X: 0.04211905888132448
time: 0.7700, EE(mH): 0.0004597801883665653, X: 0.04217158424599932
time: 0.7710, EE(mH): 0.0004614989426166005, X: 0.042224080617715445
time: 0.7720, EE(mH): 0.000463221649482648, X: 0.04227654787200539
time: 0.7730, EE(mH): 0.0004649483109631092, X: 0.0423289858843968
time: 0.7740, EE(mH): 0.00046667893016660855, X: 0.042381394530413945
time: 0.7750, EE(mH): 0.0004684135068711015, X: 0.04243377368558085
time: 0.7760, EE(mH): 0.00047015204573952474, X: 0.042486123225420745
time: 0.7770, EE(mH): 0.0004718945476600567, X: 0.04253844302545892
time: 0.7780, EE(mH): 0.0004736410170735894, X: 0.04259073296122326
time: 0.7790, EE(mH): 0.00047539145331398913, X: 0.04264299290824663
time: 0.7800, EE(mH): 0.00047714586104419254, X: 0.042695222742067745
time: 0.7810, EE(mH): 0.00047890424026419964, X: 0.04274742233823281
time: 0.7820, EE(mH): 0.0004806665940826349, X: 0.042799591572296444
time: 0.7830, EE(mH): 0.0004824329264963012, X: 0.04285173031982488
time: 0.7840, EE(mH): 0.0004842032355067971, X: 0.042903838456394845
time: 0.7850, EE(mH): 0.00048597752821955, X: 0.042955915857597456
time: 0.7860, EE(mH): 0.00048775580197002455, X: 0.04300796239903849
time: 0.7870, EE(mH): 0.0004895380618652467, X: 0.04305997795633964
time: 0.7880, EE(mH): 0.000491324308793395, X: 0.043111962405140834
time: 0.7890, EE(mH): 0.0004931145458630937, X: 0.04316391562110156
time: 0.7900, EE(mH): 0.0004949087730743429, X: 0.0432158374799012
time: 0.7910, EE(mH): 0.0004967069955341685, X: 0.043267727857242484
time: 0.7920, EE(mH): 0.0004985092132425706, X: 0.043319586628851194
time: 0.7930, EE(mH): 0.0005003154286420397, X: 0.043371413670478705
time: 0.7940, EE(mH): 0.0005021256441750666, X: 0.04342320885790292
time: 0.7950, EE(mH): 0.0005039398589534727, X: 0.043474972066930115
time: 0.7960, EE(mH): 0.0005057580803047301, X: 0.04352670317339609
time: 0.7970, EE(mH): 0.0005075803073406604, X: 0.04357840205316817
time: 0.7980, EE(mH): 0.0005094065396171743, X: 0.04363006858214604
time: 0.7990, EE(mH): 0.0005112367815751639, X: 0.04368170263626384
time: 0.8000, EE(mH): 0.000513071037877566, X: 0.04373330409149118
time: 0.8010, EE(mH): 0.0005149093063039345, X: 0.043784872823834926
time: 0.8020, EE(mH): 0.0005167515890747154, X: 0.04383640870934072
time: 0.8030, EE(mH): 0.0005185978908528455, X: 0.04388791162409401
time: 0.8040, EE(mH): 0.0005204482098619678, X: 0.043939381444222034
time: 0.8050, EE(mH): 0.000522302552541376, X: 0.04399081804589551
time: 0.8060, EE(mH): 0.0005241609162265348, X: 0.044042221305329185
time: 0.8070, EE(mH): 0.0005260233062465147, X: 0.04409359109878419
time: 0.8080, EE(mH): 0.0005278897212690481, X: 0.0441449273025694
time: 0.8090, EE(mH): 0.000529760165735027, X: 0.04419622979304259
time: 0.8100, EE(mH): 0.0005316346392003624, X: 0.044247498446612216
time: 0.8110, EE(mH): 0.0005335131456618569, X: 0.0442987331397388
time: 0.8120, EE(mH): 0.0005353956855636, X: 0.04434993374893631
time: 0.8130, EE(mH): 0.0005372822620142159, X: 0.04440110015077404
time: 0.8140, EE(mH): 0.000539172874347571, X: 0.04445223222187781
time: 0.8150, EE(mH): 0.0005410675267825127, X: 0.044503329838931426
time: 0.8160, EE(mH): 0.0005429662208733532, X: 0.04455439287867814
time: 0.8170, EE(mH): 0.0005448689577303156, X: 0.04460542121792233
time: 0.8180, EE(mH): 0.0005467757366872661, X: 0.04465641473353098
time: 0.8190, EE(mH): 0.0005486865655157658, X: 0.044707373302435155
time: 0.8200, EE(mH): 0.0005506014386646996, X: 0.04475829680163155
time: 0.8210, EE(mH): 0.0005525203619072272, X: 0.044809185108183595
time: 0.8220, EE(mH): 0.0005544433374637947, X: 0.04486003809922343
time: 0.8230, EE(mH): 0.000556370363113956, X: 0.04491085565195341
time: 0.8240, EE(mH): 0.000558301445741094, X: 0.04496163764364694
time: 0.8250, EE(mH): 0.0005602365842349855, X: 0.045012383951650914
time: 0.8260, EE(mH): 0.0005621757783735859, X: 0.045063094453386215
time: 0.8270, EE(mH): 0.0005641190341520996, X: 0.04511376902635078
time: 0.8280, EE(mH): 0.0005660663497941698, X: 0.04516440754811862
time: 0.8290, EE(mH): 0.0005680177266320641, X: 0.0452150098963438
time: 0.8300, EE(mH): 0.0005699731682184961, X: 0.04526557594876064
time: 0.8310, EE(mH): 0.0005719326765518673, X: 0.045316105583185225
time: 0.8320, EE(mH): 0.0005738962496337763, X: 0.045366598677517314
time: 0.8330, EE(mH): 0.000575863893681472, X: 0.04541705510974173
time: 0.8340, EE(mH): 0.0005778356066965529, X: 0.045467474757929546
time: 0.8350, EE(mH): 0.0005798113900112867, X: 0.04551785750023988
time: 0.8360, EE(mH): 0.0005817912474004316, X: 0.045568203214921485
time: 0.8370, EE(mH): 0.0005837751806403446, X: 0.04561851178031403
time: 0.8380, EE(mH): 0.0005857631875105795, X: 0.045668783074849485
time: 0.8390, EE(mH): 0.0005877552724520285, X: 0.045719016977053814
time: 0.8400, EE(mH): 0.0005897514370190038, X: 0.04576921336554854
time: 0.8410, EE(mH): 0.0005917516796571931, X: 0.0458193721190521
time: 0.8420, EE(mH): 0.000593756005695667, X: 0.04586949311638126
time: 0.8430, EE(mH): 0.0005957644153564701, X: 0.04591957623645264
time: 0.8440, EE(mH): 0.0005977769088616469, X: 0.045969621358284606
time: 0.8450, EE(mH): 0.000599793487099376, X: 0.0460196283609984
time: 0.8460, EE(mH): 0.0006018141536223709, X: 0.04606959712381884
time: 0.8470, EE(mH): 0.0006038389077644979, X: 0.04611952752607794
time: 0.8480, EE(mH): 0.0006058677524123368, X: 0.04616941944721411
time: 0.8490, EE(mH): 0.0006079006873438431, X: 0.04621927276677504
time: 0.8500, EE(mH): 0.0006099377145574181, X: 0.046269087364418815
time: 0.8510, EE(mH): 0.0006119788364955525, X: 0.046318863119914934
time: 0.8520, EE(mH): 0.0006140240524921126, X: 0.04636859991314678
time: 0.8530, EE(mH): 0.000616073364323455, X: 0.04641829762411244
time: 0.8540, EE(mH): 0.0006181267759863829, X: 0.04646795613292597
time: 0.8550, EE(mH): 0.0006201842834840932, X: 0.04651757531981952
time: 0.8560, EE(mH): 0.0006222458921456564, X: 0.046567155065144354
time: 0.8570, EE(mH): 0.0006243116015269834, X: 0.04661669524937263
time: 0.8580, EE(mH): 0.0006263814129603418, X: 0.04666619575309888
time: 0.8590, EE(mH): 0.000628455328444133, X: 0.046715656457040886
time: 0.8600, EE(mH): 0.000630533347978357, X: 0.046765077242042256
time: 0.8610, EE(mH): 0.0006326154724511923, X: 0.04681445798907304
time: 0.8620, EE(mH): 0.0006347017060814863, X: 0.0468637985792313
time: 0.8630, EE(mH): 0.0006367920468708377, X: 0.046913098893744884
time: 0.8640, EE(mH): 0.0006388864965956031, X: 0.04696235881397264
time: 0.8650, EE(mH): 0.0006409850565880504, X: 0.047011578221406745
time: 0.8660, EE(mH): 0.0006430877279584024, X: 0.0470607569976725
time: 0.8670, EE(mH): 0.0006451945124830161, X: 0.04710989502453141
time: 0.8680, EE(mH): 0.0006473054081634899, X: 0.04715899218388157
time: 0.8690, EE(mH): 0.0006494204203288945, X: 0.04720804835776001
time: 0.8700, EE(mH): 0.0006515395463146945, X: 0.04725706342834361
time: 0.8710, EE(mH): 0.0006536627914499604, X: 0.04730603727795069
time: 0.8720, EE(mH): 0.0006557901515158449, X: 0.047354969789042606
time: 0.8730, EE(mH): 0.0006579216300650614, X: 0.04740386084422473
time: 0.8740, EE(mH): 0.0006600572286519224, X: 0.04745271032624954
time: 0.8750, EE(mH): 0.0006621969483866508, X: 0.04750151811801536
time: 0.8760, EE(mH): 0.0006643407886031127, X: 0.04755028410257013
time: 0.8770, EE(mH): 0.0006664887535201558, X: 0.0475990081631118
time: 0.8780, EE(mH): 0.0006686408382527986, X: 0.04764769018299049
time: 0.8790, EE(mH): 0.0006707970499064686, X: 0.047696330045709216
time: 0.8800, EE(mH): 0.000672957384928452, X: 0.047744927634925785
time: 0.8810, EE(mH): 0.0006751218459832842, X: 0.047793482834454094
time: 0.8820, EE(mH): 0.0006772904339591435, X: 0.047841995528265645
time: 0.8830, EE(mH): 0.0006794631497442083, X: 0.047890465600491025
time: 0.8840, EE(mH): 0.0006816399942266571, X: 0.04793889293542165
time: 0.8850, EE(mH): 0.0006838209660742223, X: 0.04798727741751046
time: 0.8860, EE(mH): 0.0006860060706159743, X: 0.048035618931374126
time: 0.8870, EE(mH): 0.0006881953056314671, X: 0.04808391736179418
time: 0.8880, EE(mH): 0.0006903886706766116, X: 0.04813217259371846
time: 0.8890, EE(mH): 0.0006925861697482105, X: 0.04818038451226251
time: 0.8900, EE(mH): 0.0006947878017360409, X: 0.048228553002711484
time: 0.8910, EE(mH): 0.0006969935664180582, X: 0.048276677950521076
time: 0.8920, EE(mH): 0.0006992034675690206, X: 0.0483247592413189
time: 0.8930, EE(mH): 0.0007014175049668836, X: 0.04837279676090653
time: 0.8940, EE(mH): 0.0007036356755030226, X: 0.048420790395260406
time: 0.8950, EE(mH): 0.0007058579849505975, X: 0.048468740030533405
time: 0.8960, EE(mH): 0.0007080844302009837, X: 0.04851664555305653
time: 0.8970, EE(mH): 0.0007103150154730287, X: 0.048564506849340335
time: 0.8980, EE(mH): 0.0007125497396565095, X: 0.048612323806075525
time: 0.8990, EE(mH): 0.0007147885998648462, X: 0.04866009631013561
time: 0.9000, EE(mH): 0.0007170316025373324, X: 0.04870782424857771
time: 0.9010, EE(mH): 0.0007192787454535221, X: 0.04875550750864409
time: 0.9020, EE(mH): 0.0007215300312779505, X: 0.048803145977763425
time: 0.9030, EE(mH): 0.0007237854566799484, X: 0.048850739543552554
time: 0.9040, EE(mH): 0.0007260450258783635, X: 0.04889828809381751
time: 0.9050, EE(mH): 0.0007283087379850173, X: 0.048945791516555606
time: 0.9060, EE(mH): 0.0007305765923337759, X: 0.04899324969995598
time: 0.9070, EE(mH): 0.0007328485898128179, X: 0.04904066253240167
time: 0.9080, EE(mH): 0.0007351247339748568, X: 0.04908802990247071
time: 0.9090, EE(mH): 0.0007374050214892236, X: 0.04913535169893816
time: 0.9100, EE(mH): 0.0007396894552424982, X: 0.04918262781077638
time: 0.9110, EE(mH): 0.0007419780336803683, X: 0.04922985812715734
time: 0.9120, EE(mH): 0.000744270760133503, X: 0.04927704253745417
time: 0.9130, EE(mH): 0.0007465676326035009, X: 0.0493241809312419
time: 0.9140, EE(mH): 0.0007488686510903619, X: 0.04937127319829901
time: 0.9150, EE(mH): 0.0007511738193688444, X: 0.04941831922860946
time: 0.9160, EE(mH): 0.0007534831336641901, X: 0.04946531891236341
time: 0.9170, EE(mH): 0.0007557965975291125, X: 0.04951227213995857
time: 0.9180, EE(mH): 0.0007581142098533888, X: 0.04955917880200262
time: 0.9190, EE(mH): 0.000760435970637019, X: 0.0496060387893134
time: 0.9200, EE(mH): 0.0007627618821004489, X: 0.0496528519929209
time: 0.9210, EE(mH): 0.0007650919431334557, X: 0.04969961830406847
time: 0.9220, EE(mH): 0.000767426152847861, X: 0.04974633761421438
time: 0.9230, EE(mH): 0.0007697645141302445, X: 0.04979300981503329
time: 0.9240, EE(mH): 0.0007721070249822048, X: 0.04983963479841731
time: 0.9250, EE(mH): 0.0007744536874021435, X: 0.04988621245647779
time: 0.9260, EE(mH): 0.0007768045002798374, X: 0.04993274268154627
time: 0.9270, EE(mH): 0.0007791594653916434, X: 0.04997922536617609
time: 0.9280, EE(mH): 0.0007815185827375615, X: 0.05002566040314389
time: 0.9290, EE(mH): 0.0007838818503191902, X: 0.05007204768545078
time: 0.9300, EE(mH): 0.0007862492710231095, X: 0.050118387106324255
time: 0.9310, EE(mH): 0.0007886208435170516, X: 0.05016467855921832
time: 0.9320, EE(mH): 0.0007909965684671505, X: 0.05021092193781636
time: 0.9330, EE(mH): 0.0007933764454293168, X: 0.05025711713603133
time: 0.9340, EE(mH): 0.0007957604759578629, X: 0.05030326404800791
time: 0.9350, EE(mH): 0.0007981486587205211, X: 0.05034936256812368
time: 0.9360, EE(mH): 0.0008005409926070683, X: 0.05039541259099014
time: 0.9370, EE(mH): 0.0008029374827245306, X: 0.05044141401145442
time: 0.9380, EE(mH): 0.0008053381259642833, X: 0.05048736672460052
time: 0.9390, EE(mH): 0.0008077429201058806, X: 0.050533270625750706
time: 0.9400, EE(mH): 0.0008101518669256791, X: 0.050579125610466846
time: 0.9410, EE(mH): 0.0008125649684220804, X: 0.05062493157455168
time: 0.9420, EE(mH): 0.0008149822230407722, X: 0.05067068841405053
time: 0.9430, EE(mH): 0.0008174036303376653, X: 0.05071639602525189
time: 0.9440, EE(mH): 0.0008198291920891165, X: 0.050762054304689594
time: 0.9450, EE(mH): 0.0008222589058526353, X: 0.05080766314914377
time: 0.9460, EE(mH): 0.000824692775847069, X: 0.050853222455642125
time: 0.9470, EE(mH): 0.0008271307956331242, X: 0.0508987321214618
time: 0.9480, EE(mH): 0.0008295729689855591, X: 0.050944192044129574
time: 0.9490, EE(mH): 0.0008320192959043737, X: 0.050989602121424296
time: 0.9500, EE(mH): 0.0008344697759454789, X: 0.051034962251377755
time: 0.9510, EE(mH): 0.0008369244075545623, X: 0.05108027233227658
time: 0.9520, EE(mH): 0.0008393831922859363, X: 0.05112553226266207
time: 0.9530, EE(mH): 0.00084184613058369, X: 0.051170741941333434
time: 0.9540, EE(mH): 0.0008443132217816895, X: 0.05121590126734772
time: 0.9550, EE(mH): 0.0008467844654358458, X: 0.05126101014002163
time: 0.9560, EE(mH): 0.0008492598584375344, X: 0.051306068458932805
time: 0.9570, EE(mH): 0.0008517394063378703, X: 0.05135107612392089
time: 0.9580, EE(mH): 0.0008542231042518722, X: 0.05139603303508986
time: 0.9590, EE(mH): 0.0008567109548440754, X: 0.051440939092807655
time: 0.9600, EE(mH): 0.000859202955894034, X: 0.05148579419770887
time: 0.9610, EE(mH): 0.0008616991089560599, X: 0.051530598250695475
time: 0.9620, EE(mH): 0.0008641994115876628, X: 0.051575351152938154
time: 0.9630, EE(mH): 0.0008667038642329317, X: 0.051620052805877406
time: 0.9640, EE(mH): 0.0008692124686682234, X: 0.05166470311122562
time: 0.9650, EE(mH): 0.0008717252217849136, X: 0.051709301970967014
time: 0.9660, EE(mH): 0.0008742421249152699, X: 0.05175384928736037
time: 0.9670, EE(mH): 0.0008767631778372476, X: 0.05179834496293927
time: 0.9680, EE(mH): 0.0008792883772201776, X: 0.05184278890051408
time: 0.9690, EE(mH): 0.000881817728171086, X: 0.05188718100317243
time: 0.9700, EE(mH): 0.0008843512246947682, X: 0.05193152117428165
time: 0.9710, EE(mH): 0.0008868888707880274, X: 0.05197580931748871
time: 0.9720, EE(mH): 0.0008894306642304173, X: 0.05202004533672206
time: 0.9730, EE(mH): 0.0008919766036896704, X: 0.052064229136193546
time: 0.9740, EE(mH): 0.0008945266882776082, X: 0.05210836062039867
time: 0.9750, EE(mH): 0.0008970809219910336, X: 0.05215243969411812
time: 0.9760, EE(mH): 0.0008996392995008762, X: 0.05219646626241943
time: 0.9770, EE(mH): 0.0009022018236937157, X: 0.052240440230657915
time: 0.9780, EE(mH): 0.0009047684907947939, X: 0.05228436150447772
time: 0.9790, EE(mH): 0.0009073393016922893, X: 0.05232822998981368
time: 0.9800, EE(mH): 0.0009099142577184693, X: 0.05237204559289176
time: 0.9810, EE(mH): 0.0009124933559867543, X: 0.05241580822023078
time: 0.9820, EE(mH): 0.000915076598273501, X: 0.05245951777864377
time: 0.9830, EE(mH): 0.0009176639794716834, X: 0.05250317417523862
time: 0.9840, EE(mH): 0.0009202555038001492, X: 0.052546777317420114
time: 0.9850, EE(mH): 0.0009228511692604968, X: 0.052590327112890634
time: 0.9860, EE(mH): 0.0009254509729661464, X: 0.052633823469651
time: 0.9870, EE(mH): 0.0009280549184698117, X: 0.052677266296002896
time: 0.9880, EE(mH): 0.0009306630024408236, X: 0.05272065550054864
time: 0.9890, EE(mH): 0.0009332752228807806, X: 0.05276399099219342
time: 0.9900, EE(mH): 0.0009358915808999058, X: 0.0528072726801463
time: 0.9910, EE(mH): 0.0009385120764981991, X: 0.05285050047392085
time: 0.9920, EE(mH): 0.0009411367090095268, X: 0.05289367428333679
time: 0.9930, EE(mH): 0.0009437654775457105, X: 0.052936794018522
time: 0.9940, EE(mH): 0.0009463983781099472, X: 0.05297985958991161
time: 0.9950, EE(mH): 0.0009490354151431291, X: 0.05302287090825156
time: 0.9960, EE(mH): 0.0009516765839823194, X: 0.05306582788459796
time: 0.9970, EE(mH): 0.0009543218859597857, X: 0.05310873043031926
time: 0.9980, EE(mH): 0.0009569713190771267, X: 0.05315157845709728
time: 0.9990, EE(mH): 0.0009596248848886546, X: 0.05319437187692788
time: 1.0000, EE(mH): 0.0009622825793975665, X: 0.05323711060212291
trace error:  [0. 0.]
Ehrenfest error:  2.230972149122439e-14
energy conservation error:  [0. 0.]
imaginary part of energy:  0.0
