#INFO: **** input file is /home/rppeng/test/td-occd/run_test/free.py ****
from pyscf import gto, scf, fci, cc, lib
from pyscf.cc import td_fci, td_occd_slow
import numpy as np
import math
einsum = lib.einsum
np.set_printoptions(precision=4,suppress=True)

mol = gto.Mole()
mol.atom = [['Li', (0,0,0)], 
            ['H', (1,0,0)]] 
#mol.atom = [['O', (0,0,0)], 
#            ['H', (1.0,0,0)],
#            ['H', (math.cos(109),math.sin(109),0)]] 
#mol.basis = 'sto-3g'
mol.basis = '6-31g'
mol.symmetry = False
mol.verbose = 4
mol.build()
nao = mol.nao_nr()

mf = scf.RHF(mol)
mf.kernel()

w = 0.0
f0 = np.zeros(3)
td = 0.0
tf = 1.0
step = 0.001

# initial state as the HF Slater determinant
N = fci.cistring.num_strings(nao, mol.nelec[0])
ci = np.zeros((N,N))
ci[0,0] = 1.0
print('\n#################### FCI propagation ################')
td_fci.kernel_rt_test(mf, ci, w, f0, td, tf, step, RK=4)

no = sum(mol.nelec)
nv = nao*2 - no
t = np.zeros((nv,nv,no,no))
l = np.zeros((no,no,nv,nv))
U = np.eye(nao*2)
print('\n#################### OCCD propagation ################')
td_occd_slow.kernel_rt_test(mf, t, l, U, w, f0, td, tf, step, RK=4, orb=True)
#INFO: ******************** input file end ********************


System: uname_result(system='Linux', node='pauling049', release='3.10.0-327.36.3.el7.x86_64', version='#1 SMP Thu Oct 20 04:56:07 EDT 2016', machine='x86_64', processor='x86_64')  Threads 20
Python 3.7.4 (default, Aug 13 2019, 20:35:49) 
[GCC 7.3.0]
numpy 1.17.2  scipy 1.3.1
Date: Thu Sep  3 23:36:46 2020
PySCF version 1.7.1
PySCF path  /home/rppeng/code/pyscf/pyscf
GIT ORIG_HEAD 9324f3c4142ae713c70551f86b756a0d71fbddfd
GIT HEAD      ref: refs/heads/td-occd
GIT td-occd branch  7dd01cd0bf1e4f45ac0aa365c2721f1f2b737499

[CONFIG] conf_file None
[INPUT] verbose = 4
[INPUT] num. atoms = 2
[INPUT] num. electrons = 4
[INPUT] charge = 0
[INPUT] spin (= nelec alpha-beta = 2S) = 0
[INPUT] symmetry False subgroup None
[INPUT] Mole.unit = angstrom
[INPUT]  1 Li     0.000000000000   0.000000000000   0.000000000000 AA    0.000000000000   0.000000000000   0.000000000000 Bohr
[INPUT]  2 H      1.000000000000   0.000000000000   0.000000000000 AA    1.889726124565   0.000000000000   0.000000000000 Bohr

nuclear repulsion = 1.58753163276
number of shells = 7
number of NR pGTOs = 26
number of NR cGTOs = 11
basis = 6-31g
ecp = {}
CPU time:         0.37


******** <class 'pyscf.scf.hf.RHF'> ********
method = RHF
initial guess = minao
damping factor = 0
level_shift factor = 0
DIIS = <class 'pyscf.scf.diis.CDIIS'>
diis_start_cycle = 1
diis_space = 8
SCF conv_tol = 1e-09
SCF conv_tol_grad = None
SCF max_cycles = 50
direct_scf = True
direct_scf_tol = 1e-13
chkfile to save SCF result = /tmp/tmpejsc2gnj
max_memory 4000 MB (current use 59 MB)
Set gradient conv threshold to 3.16228e-05
init E= -7.80334290718356
  HOMO = -0.321728151031657  LUMO = -0.0195953268961422
cycle= 1 E= -7.86511650863895  delta_E= -0.0618  |g|= 0.105  |ddm|= 0.904
  HOMO = -0.314385542619933  LUMO = 0.0194524047806753
cycle= 2 E= -7.87058675287271  delta_E= -0.00547  |g|= 0.0199  |ddm|= 0.278
  HOMO = -0.32448710840766  LUMO = 0.0189097189683002
cycle= 3 E= -7.87119578868087  delta_E= -0.000609  |g|= 0.0078  |ddm|= 0.0771
  HOMO = -0.321148980816397  LUMO = 0.0187824383020792
cycle= 4 E= -7.87135482835057  delta_E= -0.000159  |g|= 0.000877  |ddm|= 0.0462
  HOMO = -0.321273526114505  LUMO = 0.0185563720468922
cycle= 5 E= -7.87135556843931  delta_E= -7.4e-07  |g|= 0.000107  |ddm|= 0.00674
  HOMO = -0.321278083009359  LUMO = 0.0185565138598439
cycle= 6 E= -7.87135558695577  delta_E= -1.85e-08  |g|= 2.2e-05  |ddm|= 0.000799
  HOMO = -0.321288896484227  LUMO = 0.0185551517255561
cycle= 7 E= -7.87135558718364  delta_E= -2.28e-10  |g|= 1.59e-06  |ddm|= 8.04e-05
  HOMO = -0.321288483198248  LUMO = 0.0185554798030343
Extra cycle  E= -7.87135558718572  delta_E= -2.08e-12  |g|= 4.31e-07  |ddm|= 6.94e-06
converged SCF energy = -7.87135558718572

#################### FCI propagation ################
check initial energy: -7.871355587185724
time: 0.0000, EE(mH): 0.0
time: 0.0010, EE(mH): 1.2434497875801753e-11
time: 0.0020, EE(mH): 5.329070518200751e-12
time: 0.0030, EE(mH): -1.2434497875801753e-11
time: 0.0040, EE(mH): -1.2434497875801753e-11
time: 0.0050, EE(mH): -3.552713678800501e-12
time: 0.0060, EE(mH): -8.881784197001252e-12
time: 0.0070, EE(mH): -1.7763568394002505e-12
time: 0.0080, EE(mH): -1.4210854715202004e-11
time: 0.0090, EE(mH): 3.019806626980426e-11
time: 0.0100, EE(mH): 7.105427357601002e-12
time: 0.0110, EE(mH): 1.2434497875801753e-11
time: 0.0120, EE(mH): 1.0658141036401503e-11
time: 0.0130, EE(mH): -3.019806626980426e-11
time: 0.0140, EE(mH): -8.881784197001252e-12
time: 0.0150, EE(mH): 0.0
time: 0.0160, EE(mH): -2.3092638912203256e-11
time: 0.0170, EE(mH): -3.552713678800501e-12
time: 0.0180, EE(mH): -3.197442310920451e-11
time: 0.0190, EE(mH): -3.019806626980426e-11
time: 0.0200, EE(mH): 1.5987211554602254e-11
time: 0.0210, EE(mH): -2.6645352591003757e-11
time: 0.0220, EE(mH): -3.730349362740526e-11
time: 0.0230, EE(mH): -7.105427357601002e-12
time: 0.0240, EE(mH): 1.9539925233402755e-11
time: 0.0250, EE(mH): -3.552713678800501e-12
time: 0.0260, EE(mH): -2.3092638912203256e-11
time: 0.0270, EE(mH): 5.329070518200751e-12
time: 0.0280, EE(mH): -1.5987211554602254e-11
time: 0.0290, EE(mH): 3.552713678800501e-12
time: 0.0300, EE(mH): -5.6843418860808015e-11
time: 0.0310, EE(mH): 5.329070518200751e-12
time: 0.0320, EE(mH): 7.105427357601002e-12
time: 0.0330, EE(mH): -2.3092638912203256e-11
time: 0.0340, EE(mH): -3.375077994860476e-11
time: 0.0350, EE(mH): -2.4868995751603507e-11
time: 0.0360, EE(mH): 5.329070518200751e-12
time: 0.0370, EE(mH): -8.881784197001252e-12
time: 0.0380, EE(mH): 3.019806626980426e-11
time: 0.0390, EE(mH): -1.9539925233402755e-11
time: 0.0400, EE(mH): 2.3092638912203256e-11
time: 0.0410, EE(mH): 5.329070518200751e-12
time: 0.0420, EE(mH): -1.2434497875801753e-11
time: 0.0430, EE(mH): -1.2434497875801753e-11
time: 0.0440, EE(mH): -8.881784197001252e-12
time: 0.0450, EE(mH): 2.8421709430404007e-11
time: 0.0460, EE(mH): -2.1316282072803006e-11
time: 0.0470, EE(mH): 1.7763568394002505e-11
time: 0.0480, EE(mH): 8.881784197001252e-12
time: 0.0490, EE(mH): 2.1316282072803006e-11
time: 0.0500, EE(mH): -1.2434497875801753e-11
time: 0.0510, EE(mH): -5.329070518200751e-12
time: 0.0520, EE(mH): -5.329070518200751e-12
time: 0.0530, EE(mH): -1.2434497875801753e-11
time: 0.0540, EE(mH): 3.730349362740526e-11
time: 0.0550, EE(mH): 5.329070518200751e-12
time: 0.0560, EE(mH): 1.0658141036401503e-11
time: 0.0570, EE(mH): 3.552713678800501e-12
time: 0.0580, EE(mH): -1.2434497875801753e-11
time: 0.0590, EE(mH): 1.5987211554602254e-11
time: 0.0600, EE(mH): 1.2434497875801753e-11
time: 0.0610, EE(mH): -1.5987211554602254e-11
time: 0.0620, EE(mH): -3.019806626980426e-11
time: 0.0630, EE(mH): -1.2434497875801753e-11
time: 0.0640, EE(mH): -3.019806626980426e-11
time: 0.0650, EE(mH): 2.4868995751603507e-11
time: 0.0660, EE(mH): -2.4868995751603507e-11
time: 0.0670, EE(mH): 8.881784197001252e-12
time: 0.0680, EE(mH): 1.2434497875801753e-11
time: 0.0690, EE(mH): 1.5987211554602254e-11
time: 0.0700, EE(mH): 1.0658141036401503e-11
time: 0.0710, EE(mH): 2.6645352591003757e-11
time: 0.0720, EE(mH): 1.2434497875801753e-11
time: 0.0730, EE(mH): 1.5987211554602254e-11
time: 0.0740, EE(mH): 3.552713678800501e-12
time: 0.0750, EE(mH): 4.085620730620576e-11
time: 0.0760, EE(mH): 2.6645352591003757e-11
time: 0.0770, EE(mH): 1.0658141036401503e-11
time: 0.0780, EE(mH): 3.375077994860476e-11
time: 0.0790, EE(mH): 2.3092638912203256e-11
time: 0.0800, EE(mH): -5.329070518200751e-12
time: 0.0810, EE(mH): 1.0658141036401503e-11
time: 0.0820, EE(mH): -2.3092638912203256e-11
time: 0.0830, EE(mH): 2.6645352591003757e-11
time: 0.0840, EE(mH): -3.552713678800501e-12
time: 0.0850, EE(mH): 1.2434497875801753e-11
time: 0.0860, EE(mH): 7.105427357601002e-12
time: 0.0870, EE(mH): -1.7763568394002505e-12
time: 0.0880, EE(mH): 8.881784197001252e-12
time: 0.0890, EE(mH): 1.5987211554602254e-11
time: 0.0900, EE(mH): 2.6645352591003757e-11
time: 0.0910, EE(mH): 2.1316282072803006e-11
time: 0.0920, EE(mH): 7.105427357601002e-12
time: 0.0930, EE(mH): -8.881784197001252e-12
time: 0.0940, EE(mH): 1.7763568394002505e-12
time: 0.0950, EE(mH): 7.105427357601002e-12
time: 0.0960, EE(mH): 1.5987211554602254e-11
time: 0.0970, EE(mH): 3.552713678800501e-12
time: 0.0980, EE(mH): 2.1316282072803006e-11
time: 0.0990, EE(mH): 2.3092638912203256e-11
time: 0.1000, EE(mH): 3.019806626980426e-11
time: 0.1010, EE(mH): 1.7763568394002505e-12
time: 0.1020, EE(mH): 1.2434497875801753e-11
time: 0.1030, EE(mH): 8.881784197001252e-12
time: 0.1040, EE(mH): -1.7763568394002505e-12
time: 0.1050, EE(mH): 8.881784197001252e-12
time: 0.1060, EE(mH): 1.7763568394002505e-12
time: 0.1070, EE(mH): 1.7763568394002505e-11
time: 0.1080, EE(mH): -3.552713678800501e-12
time: 0.1090, EE(mH): -1.7763568394002505e-11
time: 0.1100, EE(mH): 3.552713678800501e-12
time: 0.1110, EE(mH): 4.085620730620576e-11
time: 0.1120, EE(mH): 2.8421709430404007e-11
time: 0.1130, EE(mH): 2.4868995751603507e-11
time: 0.1140, EE(mH): 1.7763568394002505e-12
time: 0.1150, EE(mH): 3.197442310920451e-11
time: 0.1160, EE(mH): -8.881784197001252e-12
time: 0.1170, EE(mH): 5.329070518200751e-12
time: 0.1180, EE(mH): 1.7763568394002505e-12
time: 0.1190, EE(mH): 8.881784197001252e-12
time: 0.1200, EE(mH): 5.329070518200751e-12
time: 0.1210, EE(mH): 8.881784197001252e-12
time: 0.1220, EE(mH): 3.730349362740526e-11
time: 0.1230, EE(mH): 4.085620730620576e-11
time: 0.1240, EE(mH): -1.7763568394002505e-12
time: 0.1250, EE(mH): 1.2434497875801753e-11
time: 0.1260, EE(mH): 5.1514348342607263e-11
time: 0.1270, EE(mH): -1.5987211554602254e-11
time: 0.1280, EE(mH): 1.4210854715202004e-11
time: 0.1290, EE(mH): 1.9539925233402755e-11
time: 0.1300, EE(mH): 2.4868995751603507e-11
time: 0.1310, EE(mH): 4.796163466380676e-11
time: 0.1320, EE(mH): 1.5987211554602254e-11
time: 0.1330, EE(mH): 1.2434497875801753e-11
time: 0.1340, EE(mH): -1.7763568394002505e-11
time: 0.1350, EE(mH): -8.881784197001252e-12
time: 0.1360, EE(mH): 2.6645352591003757e-11
time: 0.1370, EE(mH): 4.618527782440651e-11
time: 0.1380, EE(mH): 2.8421709430404007e-11
time: 0.1390, EE(mH): 1.0658141036401503e-11
time: 0.1400, EE(mH): 4.263256414560601e-11
time: 0.1410, EE(mH): 5.1514348342607263e-11
time: 0.1420, EE(mH): -2.8421709430404007e-11
time: 0.1430, EE(mH): 4.796163466380676e-11
time: 0.1440, EE(mH): 4.440892098500626e-11
time: 0.1450, EE(mH): 4.618527782440651e-11
time: 0.1460, EE(mH): 2.6645352591003757e-11
time: 0.1470, EE(mH): 1.0658141036401503e-11
time: 0.1480, EE(mH): 1.5987211554602254e-11
time: 0.1490, EE(mH): 5.5067062021407764e-11
time: 0.1500, EE(mH): 0.0
time: 0.1510, EE(mH): -3.552713678800501e-12
time: 0.1520, EE(mH): 1.5987211554602254e-11
time: 0.1530, EE(mH): 6.039613253960852e-11
time: 0.1540, EE(mH): 5.1514348342607263e-11
time: 0.1550, EE(mH): 1.0658141036401503e-11
time: 0.1560, EE(mH): 2.8421709430404007e-11
time: 0.1570, EE(mH): 3.730349362740526e-11
time: 0.1580, EE(mH): 1.5987211554602254e-11
time: 0.1590, EE(mH): 4.618527782440651e-11
time: 0.1600, EE(mH): 1.2434497875801753e-11
time: 0.1610, EE(mH): 4.440892098500626e-11
time: 0.1620, EE(mH): 3.019806626980426e-11
time: 0.1630, EE(mH): 5.329070518200751e-12
time: 0.1640, EE(mH): 2.6645352591003757e-11
time: 0.1650, EE(mH): 2.6645352591003757e-11
time: 0.1660, EE(mH): 1.0658141036401503e-11
time: 0.1670, EE(mH): 6.750155989720952e-11
time: 0.1680, EE(mH): 5.5067062021407764e-11
time: 0.1690, EE(mH): 3.375077994860476e-11
time: 0.1700, EE(mH): 1.9539925233402755e-11
time: 0.1710, EE(mH): -8.881784197001252e-12
time: 0.1720, EE(mH): 1.9539925233402755e-11
time: 0.1730, EE(mH): 1.4210854715202004e-11
time: 0.1740, EE(mH): 5.6843418860808015e-11
time: 0.1750, EE(mH): 3.552713678800501e-11
time: 0.1760, EE(mH): -3.552713678800501e-12
time: 0.1770, EE(mH): -3.552713678800501e-12
time: 0.1780, EE(mH): -7.105427357601002e-12
time: 0.1790, EE(mH): 3.552713678800501e-11
time: 0.1800, EE(mH): 1.9539925233402755e-11
time: 0.1810, EE(mH): 1.7763568394002505e-11
time: 0.1820, EE(mH): 2.4868995751603507e-11
time: 0.1830, EE(mH): 3.197442310920451e-11
time: 0.1840, EE(mH): 2.1316282072803006e-11
time: 0.1850, EE(mH): 1.7763568394002505e-11
time: 0.1860, EE(mH): 4.263256414560601e-11
time: 0.1870, EE(mH): 2.8421709430404007e-11
time: 0.1880, EE(mH): 2.4868995751603507e-11
time: 0.1890, EE(mH): 1.7763568394002505e-12
time: 0.1900, EE(mH): 5.5067062021407764e-11
time: 0.1910, EE(mH): 4.263256414560601e-11
time: 0.1920, EE(mH): 2.4868995751603507e-11
time: 0.1930, EE(mH): 3.375077994860476e-11
time: 0.1940, EE(mH): 1.5987211554602254e-11
time: 0.1950, EE(mH): 3.197442310920451e-11
time: 0.1960, EE(mH): 4.263256414560601e-11
time: 0.1970, EE(mH): 4.796163466380676e-11
time: 0.1980, EE(mH): 1.7763568394002505e-11
time: 0.1990, EE(mH): 3.019806626980426e-11
time: 0.2000, EE(mH): 8.881784197001252e-12
time: 0.2010, EE(mH): 3.730349362740526e-11
time: 0.2020, EE(mH): -7.105427357601002e-12
time: 0.2030, EE(mH): 1.9539925233402755e-11
time: 0.2040, EE(mH): -5.329070518200751e-12
time: 0.2050, EE(mH): 1.5987211554602254e-11
time: 0.2060, EE(mH): 1.7763568394002505e-12
time: 0.2070, EE(mH): 1.9539925233402755e-11
time: 0.2080, EE(mH): 2.1316282072803006e-11
time: 0.2090, EE(mH): 3.375077994860476e-11
time: 0.2100, EE(mH): 6.927791673660977e-11
time: 0.2110, EE(mH): 3.019806626980426e-11
time: 0.2120, EE(mH): 1.7763568394002505e-11
time: 0.2130, EE(mH): 1.9539925233402755e-11
time: 0.2140, EE(mH): 1.0658141036401503e-11
time: 0.2150, EE(mH): -1.7763568394002505e-12
time: 0.2160, EE(mH): 2.6645352591003757e-11
time: 0.2170, EE(mH): 3.375077994860476e-11
time: 0.2180, EE(mH): 1.9539925233402755e-11
time: 0.2190, EE(mH): 3.907985046680551e-11
time: 0.2200, EE(mH): 5.861977570020827e-11
time: 0.2210, EE(mH): 4.618527782440651e-11
time: 0.2220, EE(mH): -1.7763568394002505e-12
time: 0.2230, EE(mH): 4.085620730620576e-11
time: 0.2240, EE(mH): 3.197442310920451e-11
time: 0.2250, EE(mH): 3.375077994860476e-11
time: 0.2260, EE(mH): -2.8421709430404007e-11
time: 0.2270, EE(mH): 8.881784197001252e-12
time: 0.2280, EE(mH): 2.1316282072803006e-11
time: 0.2290, EE(mH): 1.7763568394002505e-12
time: 0.2300, EE(mH): 3.552713678800501e-11
time: 0.2310, EE(mH): 1.0658141036401503e-11
time: 0.2320, EE(mH): 2.3092638912203256e-11
time: 0.2330, EE(mH): -8.881784197001252e-12
time: 0.2340, EE(mH): 1.5987211554602254e-11
time: 0.2350, EE(mH): 7.993605777301127e-11
time: 0.2360, EE(mH): 6.217248937900877e-11
time: 0.2370, EE(mH): 5.5067062021407764e-11
time: 0.2380, EE(mH): 3.730349362740526e-11
time: 0.2390, EE(mH): -5.329070518200751e-12
time: 0.2400, EE(mH): 2.6645352591003757e-11
time: 0.2410, EE(mH): 3.019806626980426e-11
time: 0.2420, EE(mH): 1.2434497875801753e-11
time: 0.2430, EE(mH): 1.0658141036401503e-11
time: 0.2440, EE(mH): 2.4868995751603507e-11
time: 0.2450, EE(mH): 3.552713678800501e-11
time: 0.2460, EE(mH): 2.1316282072803006e-11
time: 0.2470, EE(mH): 2.4868995751603507e-11
time: 0.2480, EE(mH): 3.019806626980426e-11
time: 0.2490, EE(mH): 1.9539925233402755e-11
time: 0.2500, EE(mH): 1.9539925233402755e-11
time: 0.2510, EE(mH): 1.7763568394002505e-11
time: 0.2520, EE(mH): 3.375077994860476e-11
time: 0.2530, EE(mH): 3.730349362740526e-11
time: 0.2540, EE(mH): 1.2434497875801753e-11
time: 0.2550, EE(mH): 3.019806626980426e-11
time: 0.2560, EE(mH): 3.907985046680551e-11
time: 0.2570, EE(mH): 2.4868995751603507e-11
time: 0.2580, EE(mH): 4.263256414560601e-11
time: 0.2590, EE(mH): 3.552713678800501e-11
time: 0.2600, EE(mH): 6.217248937900877e-11
time: 0.2610, EE(mH): 3.197442310920451e-11
time: 0.2620, EE(mH): 5.329070518200751e-12
time: 0.2630, EE(mH): 3.019806626980426e-11
time: 0.2640, EE(mH): -5.329070518200751e-12
time: 0.2650, EE(mH): 3.730349362740526e-11
time: 0.2660, EE(mH): 7.105427357601002e-12
time: 0.2670, EE(mH): 5.1514348342607263e-11
time: 0.2680, EE(mH): 3.019806626980426e-11
time: 0.2690, EE(mH): 1.9539925233402755e-11
time: 0.2700, EE(mH): 1.7763568394002505e-11
time: 0.2710, EE(mH): 3.375077994860476e-11
time: 0.2720, EE(mH): 4.085620730620576e-11
time: 0.2730, EE(mH): 1.7763568394002505e-11
time: 0.2740, EE(mH): 1.2434497875801753e-11
time: 0.2750, EE(mH): 3.552713678800501e-11
time: 0.2760, EE(mH): 2.8421709430404007e-11
time: 0.2770, EE(mH): 1.5987211554602254e-11
time: 0.2780, EE(mH): 6.927791673660977e-11
time: 0.2790, EE(mH): 4.973799150320701e-11
time: 0.2800, EE(mH): 3.907985046680551e-11
time: 0.2810, EE(mH): 6.394884621840902e-11
time: 0.2820, EE(mH): 3.907985046680551e-11
time: 0.2830, EE(mH): 8.881784197001252e-12
time: 0.2840, EE(mH): 6.039613253960852e-11
time: 0.2850, EE(mH): 4.440892098500626e-11
time: 0.2860, EE(mH): 1.0658141036401503e-11
time: 0.2870, EE(mH): 1.5987211554602254e-11
time: 0.2880, EE(mH): 1.9539925233402755e-11
time: 0.2890, EE(mH): -5.329070518200751e-12
time: 0.2900, EE(mH): 5.3290705182007514e-11
time: 0.2910, EE(mH): 7.105427357601002e-12
time: 0.2920, EE(mH): 4.440892098500626e-11
time: 0.2930, EE(mH): 6.927791673660977e-11
time: 0.2940, EE(mH): 1.2434497875801753e-11
time: 0.2950, EE(mH): 2.1316282072803006e-11
time: 0.2960, EE(mH): 4.618527782440651e-11
time: 0.2970, EE(mH): 1.5987211554602254e-11
time: 0.2980, EE(mH): 3.552713678800501e-11
time: 0.2990, EE(mH): 4.263256414560601e-11
time: 0.3000, EE(mH): 3.552713678800501e-11
time: 0.3010, EE(mH): 2.6645352591003757e-11
time: 0.3020, EE(mH): 5.861977570020827e-11
time: 0.3030, EE(mH): 1.2434497875801753e-11
time: 0.3040, EE(mH): 3.197442310920451e-11
time: 0.3050, EE(mH): 4.263256414560601e-11
time: 0.3060, EE(mH): 1.9539925233402755e-11
time: 0.3070, EE(mH): 2.6645352591003757e-11
time: 0.3080, EE(mH): 1.9539925233402755e-11
time: 0.3090, EE(mH): 1.5987211554602254e-11
time: 0.3100, EE(mH): 4.796163466380676e-11
time: 0.3110, EE(mH): 3.019806626980426e-11
time: 0.3120, EE(mH): 1.2434497875801753e-11
time: 0.3130, EE(mH): 4.085620730620576e-11
time: 0.3140, EE(mH): 2.8421709430404007e-11
time: 0.3150, EE(mH): 4.085620730620576e-11
time: 0.3160, EE(mH): 2.6645352591003757e-11
time: 0.3170, EE(mH): 9.592326932761353e-11
time: 0.3180, EE(mH): 8.881784197001252e-12
time: 0.3190, EE(mH): 5.1514348342607263e-11
time: 0.3200, EE(mH): 3.730349362740526e-11
time: 0.3210, EE(mH): 3.907985046680551e-11
time: 0.3220, EE(mH): 1.4210854715202004e-11
time: 0.3230, EE(mH): 3.730349362740526e-11
time: 0.3240, EE(mH): 4.973799150320701e-11
time: 0.3250, EE(mH): 2.4868995751603507e-11
time: 0.3260, EE(mH): 3.019806626980426e-11
time: 0.3270, EE(mH): 5.861977570020827e-11
time: 0.3280, EE(mH): 3.552713678800501e-11
time: 0.3290, EE(mH): 3.197442310920451e-11
time: 0.3300, EE(mH): 3.730349362740526e-11
time: 0.3310, EE(mH): 3.730349362740526e-11
time: 0.3320, EE(mH): 5.6843418860808015e-11
time: 0.3330, EE(mH): 4.440892098500626e-11
time: 0.3340, EE(mH): 5.3290705182007514e-11
time: 0.3350, EE(mH): 3.730349362740526e-11
time: 0.3360, EE(mH): 5.6843418860808015e-11
time: 0.3370, EE(mH): 2.3092638912203256e-11
time: 0.3380, EE(mH): 5.861977570020827e-11
time: 0.3390, EE(mH): 5.6843418860808015e-11
time: 0.3400, EE(mH): 4.440892098500626e-11
time: 0.3410, EE(mH): 2.3092638912203256e-11
time: 0.3420, EE(mH): 1.5987211554602254e-11
time: 0.3430, EE(mH): 1.9539925233402755e-11
time: 0.3440, EE(mH): 3.019806626980426e-11
time: 0.3450, EE(mH): 4.085620730620576e-11
time: 0.3460, EE(mH): 4.618527782440651e-11
time: 0.3470, EE(mH): 5.1514348342607263e-11
time: 0.3480, EE(mH): 1.9539925233402755e-11
time: 0.3490, EE(mH): 5.3290705182007514e-11
time: 0.3500, EE(mH): 3.907985046680551e-11
time: 0.3510, EE(mH): 8.704148513061227e-11
time: 0.3520, EE(mH): 2.6645352591003757e-11
time: 0.3530, EE(mH): 5.5067062021407764e-11
time: 0.3540, EE(mH): 4.973799150320701e-11
time: 0.3550, EE(mH): 5.861977570020827e-11
time: 0.3560, EE(mH): 3.730349362740526e-11
time: 0.3570, EE(mH): 1.7763568394002505e-12
time: 0.3580, EE(mH): 3.375077994860476e-11
time: 0.3590, EE(mH): 2.3092638912203256e-11
time: 0.3600, EE(mH): 5.1514348342607263e-11
time: 0.3610, EE(mH): 3.375077994860476e-11
time: 0.3620, EE(mH): 6.572520305780927e-11
time: 0.3630, EE(mH): 6.039613253960852e-11
time: 0.3640, EE(mH): 2.6645352591003757e-11
time: 0.3650, EE(mH): 3.907985046680551e-11
time: 0.3660, EE(mH): 7.283063041541027e-11
time: 0.3670, EE(mH): 3.375077994860476e-11
time: 0.3680, EE(mH): 4.440892098500626e-11
time: 0.3690, EE(mH): 3.197442310920451e-11
time: 0.3700, EE(mH): 3.730349362740526e-11
time: 0.3710, EE(mH): 5.6843418860808015e-11
time: 0.3720, EE(mH): 4.440892098500626e-11
time: 0.3730, EE(mH): 3.375077994860476e-11
time: 0.3740, EE(mH): 6.217248937900877e-11
time: 0.3750, EE(mH): 3.197442310920451e-11
time: 0.3760, EE(mH): 5.1514348342607263e-11
time: 0.3770, EE(mH): 3.907985046680551e-11
time: 0.3780, EE(mH): 4.440892098500626e-11
time: 0.3790, EE(mH): -8.881784197001252e-12
time: 0.3800, EE(mH): 3.019806626980426e-11
time: 0.3810, EE(mH): 2.6645352591003757e-11
time: 0.3820, EE(mH): 4.796163466380676e-11
time: 0.3830, EE(mH): 3.375077994860476e-11
time: 0.3840, EE(mH): 0.0
time: 0.3850, EE(mH): 5.3290705182007514e-11
time: 0.3860, EE(mH): 5.861977570020827e-11
time: 0.3870, EE(mH): 3.375077994860476e-11
time: 0.3880, EE(mH): 4.085620730620576e-11
time: 0.3890, EE(mH): 3.907985046680551e-11
time: 0.3900, EE(mH): 6.572520305780927e-11
time: 0.3910, EE(mH): 8.171241461241152e-11
time: 0.3920, EE(mH): 5.5067062021407764e-11
time: 0.3930, EE(mH): 6.217248937900877e-11
time: 0.3940, EE(mH): 2.6645352591003757e-11
time: 0.3950, EE(mH): 5.3290705182007514e-11
time: 0.3960, EE(mH): 7.283063041541027e-11
time: 0.3970, EE(mH): 6.927791673660977e-11
time: 0.3980, EE(mH): 7.815970093361102e-11
time: 0.3990, EE(mH): 3.019806626980426e-11
time: 0.4000, EE(mH): 1.9539925233402755e-11
time: 0.4010, EE(mH): 3.730349362740526e-11
time: 0.4020, EE(mH): 4.796163466380676e-11
time: 0.4030, EE(mH): 3.730349362740526e-11
time: 0.4040, EE(mH): 1.2434497875801753e-11
time: 0.4050, EE(mH): 3.375077994860476e-11
time: 0.4060, EE(mH): 5.861977570020827e-11
time: 0.4070, EE(mH): 7.993605777301127e-11
time: 0.4080, EE(mH): 7.105427357601002e-11
time: 0.4090, EE(mH): 6.750155989720952e-11
time: 0.4100, EE(mH): 2.3092638912203256e-11
time: 0.4110, EE(mH): 4.796163466380676e-11
time: 0.4120, EE(mH): 1.4210854715202004e-11
time: 0.4130, EE(mH): 1.9539925233402755e-11
time: 0.4140, EE(mH): 4.263256414560601e-11
time: 0.4150, EE(mH): 5.861977570020827e-11
time: 0.4160, EE(mH): 8.881784197001252e-12
time: 0.4170, EE(mH): 6.039613253960852e-11
time: 0.4180, EE(mH): 6.217248937900877e-11
time: 0.4190, EE(mH): 1.5987211554602254e-11
time: 0.4200, EE(mH): 2.3092638912203256e-11
time: 0.4210, EE(mH): 5.3290705182007514e-11
time: 0.4220, EE(mH): 7.105427357601002e-11
time: 0.4230, EE(mH): 2.6645352591003757e-11
time: 0.4240, EE(mH): 4.618527782440651e-11
time: 0.4250, EE(mH): 7.105427357601002e-11
time: 0.4260, EE(mH): 4.085620730620576e-11
time: 0.4270, EE(mH): 6.217248937900877e-11
time: 0.4280, EE(mH): 4.263256414560601e-11
time: 0.4290, EE(mH): 8.881784197001252e-11
time: 0.4300, EE(mH): 6.217248937900877e-11
time: 0.4310, EE(mH): 5.5067062021407764e-11
time: 0.4320, EE(mH): 5.861977570020827e-11
time: 0.4330, EE(mH): 3.019806626980426e-11
time: 0.4340, EE(mH): 7.815970093361102e-11
time: 0.4350, EE(mH): 4.618527782440651e-11
time: 0.4360, EE(mH): 4.085620730620576e-11
time: 0.4370, EE(mH): 6.927791673660977e-11
time: 0.4380, EE(mH): 6.750155989720952e-11
time: 0.4390, EE(mH): 5.3290705182007514e-11
time: 0.4400, EE(mH): 6.750155989720952e-11
time: 0.4410, EE(mH): 7.283063041541027e-11
time: 0.4420, EE(mH): 5.3290705182007514e-11
time: 0.4430, EE(mH): 4.085620730620576e-11
time: 0.4440, EE(mH): 4.085620730620576e-11
time: 0.4450, EE(mH): 4.796163466380676e-11
time: 0.4460, EE(mH): 4.440892098500626e-11
time: 0.4470, EE(mH): 2.1316282072803006e-11
time: 0.4480, EE(mH): 4.796163466380676e-11
time: 0.4490, EE(mH): 9.059419880941277e-11
time: 0.4500, EE(mH): 7.105427357601002e-11
time: 0.4510, EE(mH): 5.861977570020827e-11
time: 0.4520, EE(mH): 5.5067062021407764e-11
time: 0.4530, EE(mH): 6.039613253960852e-11
time: 0.4540, EE(mH): 6.927791673660977e-11
time: 0.4550, EE(mH): 4.085620730620576e-11
time: 0.4560, EE(mH): 5.861977570020827e-11
time: 0.4570, EE(mH): 5.5067062021407764e-11
time: 0.4580, EE(mH): 5.1514348342607263e-11
time: 0.4590, EE(mH): 2.3092638912203256e-11
time: 0.4600, EE(mH): 4.796163466380676e-11
time: 0.4610, EE(mH): 1.0480505352461478e-10
time: 0.4620, EE(mH): 3.197442310920451e-11
time: 0.4630, EE(mH): 5.861977570020827e-11
time: 0.4640, EE(mH): 6.039613253960852e-11
time: 0.4650, EE(mH): 6.572520305780927e-11
time: 0.4660, EE(mH): 4.440892098500626e-11
time: 0.4670, EE(mH): 8.171241461241152e-11
time: 0.4680, EE(mH): 3.019806626980426e-11
time: 0.4690, EE(mH): 5.6843418860808015e-11
time: 0.4700, EE(mH): 1.9539925233402755e-11
time: 0.4710, EE(mH): 5.5067062021407764e-11
time: 0.4720, EE(mH): 7.638334409421077e-11
time: 0.4730, EE(mH): 9.059419880941277e-11
time: 0.4740, EE(mH): 2.8421709430404007e-11
time: 0.4750, EE(mH): 4.796163466380676e-11
time: 0.4760, EE(mH): 3.552713678800501e-12
time: 0.4770, EE(mH): 4.618527782440651e-11
time: 0.4780, EE(mH): 6.572520305780927e-11
time: 0.4790, EE(mH): 4.263256414560601e-11
time: 0.4800, EE(mH): 1.9539925233402755e-11
time: 0.4810, EE(mH): 7.105427357601002e-11
time: 0.4820, EE(mH): 4.085620730620576e-11
time: 0.4830, EE(mH): 3.197442310920451e-11
time: 0.4840, EE(mH): 5.6843418860808015e-11
time: 0.4850, EE(mH): 3.730349362740526e-11
time: 0.4860, EE(mH): 6.927791673660977e-11
time: 0.4870, EE(mH): 4.263256414560601e-11
time: 0.4880, EE(mH): 5.3290705182007514e-11
time: 0.4890, EE(mH): 3.019806626980426e-11
time: 0.4900, EE(mH): 1.4210854715202004e-11
time: 0.4910, EE(mH): 1.7763568394002505e-12
time: 0.4920, EE(mH): 3.197442310920451e-11
time: 0.4930, EE(mH): 5.861977570020827e-11
time: 0.4940, EE(mH): 4.263256414560601e-11
time: 0.4950, EE(mH): 7.993605777301127e-11
time: 0.4960, EE(mH): 5.1514348342607263e-11
time: 0.4970, EE(mH): 6.217248937900877e-11
time: 0.4980, EE(mH): 6.039613253960852e-11
time: 0.4990, EE(mH): 6.927791673660977e-11
time: 0.5000, EE(mH): 7.993605777301127e-11
time: 0.5010, EE(mH): 7.283063041541027e-11
time: 0.5020, EE(mH): 4.973799150320701e-11
time: 0.5030, EE(mH): 3.907985046680551e-11
time: 0.5040, EE(mH): 1.9539925233402755e-11
time: 0.5050, EE(mH): 3.907985046680551e-11
time: 0.5060, EE(mH): 5.861977570020827e-11
time: 0.5070, EE(mH): 5.861977570020827e-11
time: 0.5080, EE(mH): 3.019806626980426e-11
time: 0.5090, EE(mH): 8.704148513061227e-11
time: 0.5100, EE(mH): 4.440892098500626e-11
time: 0.5110, EE(mH): 5.6843418860808015e-11
time: 0.5120, EE(mH): 4.973799150320701e-11
time: 0.5130, EE(mH): 6.394884621840902e-11
time: 0.5140, EE(mH): 6.572520305780927e-11
time: 0.5150, EE(mH): 4.440892098500626e-11
time: 0.5160, EE(mH): 9.414691248821327e-11
time: 0.5170, EE(mH): 7.815970093361102e-11
time: 0.5180, EE(mH): 7.815970093361102e-11
time: 0.5190, EE(mH): 5.1514348342607263e-11
time: 0.5200, EE(mH): 7.460698725481052e-11
time: 0.5210, EE(mH): 3.375077994860476e-11
time: 0.5220, EE(mH): 6.750155989720952e-11
time: 0.5230, EE(mH): 4.263256414560601e-11
time: 0.5240, EE(mH): 4.618527782440651e-11
time: 0.5250, EE(mH): 9.059419880941277e-11
time: 0.5260, EE(mH): 2.3092638912203256e-11
time: 0.5270, EE(mH): 6.750155989720952e-11
time: 0.5280, EE(mH): 6.572520305780927e-11
time: 0.5290, EE(mH): 3.375077994860476e-11
time: 0.5300, EE(mH): 3.375077994860476e-11
time: 0.5310, EE(mH): 5.1514348342607263e-11
time: 0.5320, EE(mH): 6.394884621840902e-11
time: 0.5330, EE(mH): 7.993605777301127e-11
time: 0.5340, EE(mH): 4.973799150320701e-11
time: 0.5350, EE(mH): 8.526512829121202e-11
time: 0.5360, EE(mH): 7.460698725481052e-11
time: 0.5370, EE(mH): 4.618527782440651e-11
time: 0.5380, EE(mH): 7.283063041541027e-11
time: 0.5390, EE(mH): 6.572520305780927e-11
time: 0.5400, EE(mH): 8.348877145181177e-11
time: 0.5410, EE(mH): 7.283063041541027e-11
time: 0.5420, EE(mH): 7.105427357601002e-11
time: 0.5430, EE(mH): 6.750155989720952e-11
time: 0.5440, EE(mH): 1.1191048088221578e-10
time: 0.5450, EE(mH): 7.460698725481052e-11
time: 0.5460, EE(mH): 5.6843418860808015e-11
time: 0.5470, EE(mH): 4.796163466380676e-11
time: 0.5480, EE(mH): 7.105427357601002e-11
time: 0.5490, EE(mH): 1.2434497875801753e-11
time: 0.5500, EE(mH): 7.283063041541027e-11
time: 0.5510, EE(mH): 5.5067062021407764e-11
time: 0.5520, EE(mH): 7.815970093361102e-11
time: 0.5530, EE(mH): 7.105427357601002e-11
time: 0.5540, EE(mH): 8.171241461241152e-11
time: 0.5550, EE(mH): 5.3290705182007514e-11
time: 0.5560, EE(mH): 9.947598300641403e-11
time: 0.5570, EE(mH): 6.927791673660977e-11
time: 0.5580, EE(mH): 3.907985046680551e-11
time: 0.5590, EE(mH): 9.237055564881302e-11
time: 0.5600, EE(mH): 8.881784197001252e-11
time: 0.5610, EE(mH): 8.348877145181177e-11
time: 0.5620, EE(mH): 4.973799150320701e-11
time: 0.5630, EE(mH): 4.440892098500626e-11
time: 0.5640, EE(mH): 7.105427357601002e-11
time: 0.5650, EE(mH): 6.750155989720952e-11
time: 0.5660, EE(mH): 7.105427357601002e-11
time: 0.5670, EE(mH): 5.3290705182007514e-11
time: 0.5680, EE(mH): 7.283063041541027e-11
time: 0.5690, EE(mH): 7.105427357601002e-11
time: 0.5700, EE(mH): 7.283063041541027e-11
time: 0.5710, EE(mH): 9.414691248821327e-11
time: 0.5720, EE(mH): 3.730349362740526e-11
time: 0.5730, EE(mH): 4.085620730620576e-11
time: 0.5740, EE(mH): 6.217248937900877e-11
time: 0.5750, EE(mH): 6.572520305780927e-11
time: 0.5760, EE(mH): 8.348877145181177e-11
time: 0.5770, EE(mH): 1.0480505352461478e-10
time: 0.5780, EE(mH): 9.237055564881302e-11
time: 0.5790, EE(mH): 1.1013412404281553e-10
time: 0.5800, EE(mH): 8.171241461241152e-11
time: 0.5810, EE(mH): 7.105427357601002e-11
time: 0.5820, EE(mH): 2.6645352591003757e-11
time: 0.5830, EE(mH): 8.704148513061227e-11
time: 0.5840, EE(mH): 9.414691248821327e-11
time: 0.5850, EE(mH): 7.815970093361102e-11
time: 0.5860, EE(mH): 3.907985046680551e-11
time: 0.5870, EE(mH): 5.6843418860808015e-11
time: 0.5880, EE(mH): 8.348877145181177e-11
time: 0.5890, EE(mH): 5.5067062021407764e-11
time: 0.5900, EE(mH): 1.0480505352461478e-10
time: 0.5910, EE(mH): 6.927791673660977e-11
time: 0.5920, EE(mH): 7.638334409421077e-11
time: 0.5930, EE(mH): 5.5067062021407764e-11
time: 0.5940, EE(mH): 9.059419880941277e-11
time: 0.5950, EE(mH): 7.815970093361102e-11
time: 0.5960, EE(mH): 8.526512829121202e-11
time: 0.5970, EE(mH): 6.572520305780927e-11
time: 0.5980, EE(mH): 5.6843418860808015e-11
time: 0.5990, EE(mH): 7.105427357601002e-11
time: 0.6000, EE(mH): 6.394884621840902e-11
time: 0.6010, EE(mH): 5.3290705182007514e-11
time: 0.6020, EE(mH): 7.283063041541027e-11
time: 0.6030, EE(mH): 5.5067062021407764e-11
time: 0.6040, EE(mH): 6.394884621840902e-11
time: 0.6050, EE(mH): 5.1514348342607263e-11
time: 0.6060, EE(mH): 7.105427357601002e-11
time: 0.6070, EE(mH): 6.750155989720952e-11
time: 0.6080, EE(mH): 7.993605777301127e-11
time: 0.6090, EE(mH): 7.283063041541027e-11
time: 0.6100, EE(mH): 9.414691248821327e-11
time: 0.6110, EE(mH): 5.861977570020827e-11
time: 0.6120, EE(mH): 7.993605777301127e-11
time: 0.6130, EE(mH): 7.815970093361102e-11
time: 0.6140, EE(mH): 7.638334409421077e-11
time: 0.6150, EE(mH): 8.704148513061227e-11
time: 0.6160, EE(mH): 3.019806626980426e-11
time: 0.6170, EE(mH): 4.796163466380676e-11
time: 0.6180, EE(mH): 7.283063041541027e-11
time: 0.6190, EE(mH): 6.927791673660977e-11
time: 0.6200, EE(mH): 5.6843418860808015e-11
time: 0.6210, EE(mH): 8.171241461241152e-11
time: 0.6220, EE(mH): 7.993605777301127e-11
time: 0.6230, EE(mH): 9.414691248821327e-11
time: 0.6240, EE(mH): 5.861977570020827e-11
time: 0.6250, EE(mH): 4.973799150320701e-11
time: 0.6260, EE(mH): 8.171241461241152e-11
time: 0.6270, EE(mH): 6.217248937900877e-11
time: 0.6280, EE(mH): 5.861977570020827e-11
time: 0.6290, EE(mH): 5.861977570020827e-11
time: 0.6300, EE(mH): 7.993605777301127e-11
time: 0.6310, EE(mH): 4.796163466380676e-11
time: 0.6320, EE(mH): 6.927791673660977e-11
time: 0.6330, EE(mH): 7.105427357601002e-11
time: 0.6340, EE(mH): 1.1723955140041653e-10
time: 0.6350, EE(mH): 7.638334409421077e-11
time: 0.6360, EE(mH): 6.927791673660977e-11
time: 0.6370, EE(mH): 8.526512829121202e-11
time: 0.6380, EE(mH): 7.283063041541027e-11
time: 0.6390, EE(mH): 6.927791673660977e-11
time: 0.6400, EE(mH): 7.460698725481052e-11
time: 0.6410, EE(mH): 4.618527782440651e-11
time: 0.6420, EE(mH): 1.0302869668521453e-10
time: 0.6430, EE(mH): 1.0835776720341528e-10
time: 0.6440, EE(mH): 8.348877145181177e-11
time: 0.6450, EE(mH): 7.283063041541027e-11
time: 0.6460, EE(mH): 1.0480505352461478e-10
time: 0.6470, EE(mH): 7.815970093361102e-11
time: 0.6480, EE(mH): 9.237055564881302e-11
time: 0.6490, EE(mH): 6.572520305780927e-11
time: 0.6500, EE(mH): 6.750155989720952e-11
time: 0.6510, EE(mH): 7.460698725481052e-11
time: 0.6520, EE(mH): 8.881784197001252e-11
time: 0.6530, EE(mH): 7.460698725481052e-11
time: 0.6540, EE(mH): 6.927791673660977e-11
time: 0.6550, EE(mH): 7.105427357601002e-11
time: 0.6560, EE(mH): 6.572520305780927e-11
time: 0.6570, EE(mH): 5.861977570020827e-11
time: 0.6580, EE(mH): 1.2256862191861728e-10
time: 0.6590, EE(mH): 1.1013412404281553e-10
time: 0.6600, EE(mH): 7.283063041541027e-11
time: 0.6610, EE(mH): 7.283063041541027e-11
time: 0.6620, EE(mH): 1.0125233984581428e-10
time: 0.6630, EE(mH): 6.927791673660977e-11
time: 0.6640, EE(mH): 8.348877145181177e-11
time: 0.6650, EE(mH): 6.927791673660977e-11
time: 0.6660, EE(mH): 4.618527782440651e-11
time: 0.6670, EE(mH): 7.638334409421077e-11
time: 0.6680, EE(mH): 5.1514348342607263e-11
time: 0.6690, EE(mH): 5.861977570020827e-11
time: 0.6700, EE(mH): 1.1723955140041653e-10
time: 0.6710, EE(mH): 7.993605777301127e-11
time: 0.6720, EE(mH): 7.460698725481052e-11
time: 0.6730, EE(mH): 7.638334409421077e-11
time: 0.6740, EE(mH): 1.0658141036401503e-10
time: 0.6750, EE(mH): 7.993605777301127e-11
time: 0.6760, EE(mH): 9.059419880941277e-11
time: 0.6770, EE(mH): 1.0835776720341528e-10
time: 0.6780, EE(mH): 5.6843418860808015e-11
time: 0.6790, EE(mH): 6.039613253960852e-11
time: 0.6800, EE(mH): 1.1546319456101628e-10
time: 0.6810, EE(mH): 7.638334409421077e-11
time: 0.6820, EE(mH): 8.348877145181177e-11
time: 0.6830, EE(mH): 9.414691248821327e-11
time: 0.6840, EE(mH): 9.947598300641403e-11
time: 0.6850, EE(mH): 7.638334409421077e-11
time: 0.6860, EE(mH): 6.927791673660977e-11
time: 0.6870, EE(mH): 5.1514348342607263e-11
time: 0.6880, EE(mH): 8.171241461241152e-11
time: 0.6890, EE(mH): 5.5067062021407764e-11
time: 0.6900, EE(mH): 6.039613253960852e-11
time: 0.6910, EE(mH): 9.237055564881302e-11
time: 0.6920, EE(mH): 7.993605777301127e-11
time: 0.6930, EE(mH): 8.171241461241152e-11
time: 0.6940, EE(mH): 6.039613253960852e-11
time: 0.6950, EE(mH): 6.927791673660977e-11
time: 0.6960, EE(mH): 9.769962616701378e-11
time: 0.6970, EE(mH): 9.414691248821327e-11
time: 0.6980, EE(mH): 8.348877145181177e-11
time: 0.6990, EE(mH): 5.861977570020827e-11
time: 0.7000, EE(mH): 7.105427357601002e-11
time: 0.7010, EE(mH): 6.927791673660977e-11
time: 0.7020, EE(mH): 8.348877145181177e-11
time: 0.7030, EE(mH): 2.4868995751603507e-11
time: 0.7040, EE(mH): 7.993605777301127e-11
time: 0.7050, EE(mH): 6.572520305780927e-11
time: 0.7060, EE(mH): 7.815970093361102e-11
time: 0.7070, EE(mH): 1.1013412404281553e-10
time: 0.7080, EE(mH): 7.283063041541027e-11
time: 0.7090, EE(mH): 7.993605777301127e-11
time: 0.7100, EE(mH): 9.769962616701378e-11
time: 0.7110, EE(mH): 6.217248937900877e-11
time: 0.7120, EE(mH): 7.283063041541027e-11
time: 0.7130, EE(mH): 1.1901590823981678e-10
time: 0.7140, EE(mH): 1.0835776720341528e-10
time: 0.7150, EE(mH): 7.105427357601002e-11
time: 0.7160, EE(mH): 6.927791673660977e-11
time: 0.7170, EE(mH): 8.881784197001252e-11
time: 0.7180, EE(mH): 8.704148513061227e-11
time: 0.7190, EE(mH): 7.460698725481052e-11
time: 0.7200, EE(mH): 1.1546319456101628e-10
time: 0.7210, EE(mH): 7.993605777301127e-11
time: 0.7220, EE(mH): 6.572520305780927e-11
time: 0.7230, EE(mH): 7.815970093361102e-11
time: 0.7240, EE(mH): 9.059419880941277e-11
time: 0.7250, EE(mH): 1.0125233984581428e-10
time: 0.7260, EE(mH): 7.638334409421077e-11
time: 0.7270, EE(mH): 9.059419880941277e-11
time: 0.7280, EE(mH): 1.0480505352461478e-10
time: 0.7290, EE(mH): 9.947598300641403e-11
time: 0.7300, EE(mH): 9.769962616701378e-11
time: 0.7310, EE(mH): 7.638334409421077e-11
time: 0.7320, EE(mH): 6.572520305780927e-11
time: 0.7330, EE(mH): 5.3290705182007514e-11
time: 0.7340, EE(mH): 9.769962616701378e-11
time: 0.7350, EE(mH): 9.059419880941277e-11
time: 0.7360, EE(mH): 1.0125233984581428e-10
time: 0.7370, EE(mH): 7.283063041541027e-11
time: 0.7380, EE(mH): 1.0835776720341528e-10
time: 0.7390, EE(mH): 8.881784197001252e-11
time: 0.7400, EE(mH): 6.927791673660977e-11
time: 0.7410, EE(mH): 8.704148513061227e-11
time: 0.7420, EE(mH): 6.927791673660977e-11
time: 0.7430, EE(mH): 9.592326932761353e-11
time: 0.7440, EE(mH): 7.460698725481052e-11
time: 0.7450, EE(mH): 8.704148513061227e-11
time: 0.7460, EE(mH): 9.947598300641403e-11
time: 0.7470, EE(mH): 1.1368683772161603e-10
time: 0.7480, EE(mH): 7.638334409421077e-11
time: 0.7490, EE(mH): 8.348877145181177e-11
time: 0.7500, EE(mH): 6.927791673660977e-11
time: 0.7510, EE(mH): 6.750155989720952e-11
time: 0.7520, EE(mH): 8.348877145181177e-11
time: 0.7530, EE(mH): 1.1368683772161603e-10
time: 0.7540, EE(mH): 1.0480505352461478e-10
time: 0.7550, EE(mH): 1.1546319456101628e-10
time: 0.7560, EE(mH): 6.039613253960852e-11
time: 0.7570, EE(mH): 5.5067062021407764e-11
time: 0.7580, EE(mH): 9.059419880941277e-11
time: 0.7590, EE(mH): 8.171241461241152e-11
time: 0.7600, EE(mH): 1.0480505352461478e-10
time: 0.7610, EE(mH): 9.947598300641403e-11
time: 0.7620, EE(mH): 5.5067062021407764e-11
time: 0.7630, EE(mH): 7.460698725481052e-11
time: 0.7640, EE(mH): 8.704148513061227e-11
time: 0.7650, EE(mH): 1.0658141036401503e-10
time: 0.7660, EE(mH): 9.592326932761353e-11
time: 0.7670, EE(mH): 7.460698725481052e-11
time: 0.7680, EE(mH): 8.348877145181177e-11
time: 0.7690, EE(mH): 7.993605777301127e-11
time: 0.7700, EE(mH): 6.572520305780927e-11
time: 0.7710, EE(mH): 9.414691248821327e-11
time: 0.7720, EE(mH): 9.059419880941277e-11
time: 0.7730, EE(mH): 4.796163466380676e-11
time: 0.7740, EE(mH): 7.283063041541027e-11
time: 0.7750, EE(mH): 1.2256862191861728e-10
time: 0.7760, EE(mH): 9.059419880941277e-11
time: 0.7770, EE(mH): 9.769962616701378e-11
time: 0.7780, EE(mH): 1.0835776720341528e-10
time: 0.7790, EE(mH): 1.1013412404281553e-10
time: 0.7800, EE(mH): 6.394884621840902e-11
time: 0.7810, EE(mH): 6.572520305780927e-11
time: 0.7820, EE(mH): 9.237055564881302e-11
time: 0.7830, EE(mH): 1.438849039914203e-10
time: 0.7840, EE(mH): 1.1013412404281553e-10
time: 0.7850, EE(mH): 1.0302869668521453e-10
time: 0.7860, EE(mH): 1.0125233984581428e-10
time: 0.7870, EE(mH): 7.283063041541027e-11
time: 0.7880, EE(mH): 6.927791673660977e-11
time: 0.7890, EE(mH): 6.572520305780927e-11
time: 0.7900, EE(mH): 8.881784197001252e-11
time: 0.7910, EE(mH): 9.769962616701378e-11
time: 0.7920, EE(mH): 6.572520305780927e-11
time: 0.7930, EE(mH): 1.1368683772161603e-10
time: 0.7940, EE(mH): 8.526512829121202e-11
time: 0.7950, EE(mH): 9.059419880941277e-11
time: 0.7960, EE(mH): 5.3290705182007514e-11
time: 0.7970, EE(mH): 8.526512829121202e-11
time: 0.7980, EE(mH): 8.881784197001252e-11
time: 0.7990, EE(mH): 6.039613253960852e-11
time: 0.8000, EE(mH): 1.1723955140041653e-10
time: 0.8010, EE(mH): 1.0302869668521453e-10
time: 0.8020, EE(mH): 8.881784197001252e-11
time: 0.8030, EE(mH): 1.1013412404281553e-10
time: 0.8040, EE(mH): 9.592326932761353e-11
time: 0.8050, EE(mH): 1.1546319456101628e-10
time: 0.8060, EE(mH): 7.815970093361102e-11
time: 0.8070, EE(mH): 1.0480505352461478e-10
time: 0.8080, EE(mH): 8.881784197001252e-11
time: 0.8090, EE(mH): 5.6843418860808015e-11
time: 0.8100, EE(mH): 5.861977570020827e-11
time: 0.8110, EE(mH): 1.0658141036401503e-10
time: 0.8120, EE(mH): 9.769962616701378e-11
time: 0.8130, EE(mH): 8.704148513061227e-11
time: 0.8140, EE(mH): 7.105427357601002e-11
time: 0.8150, EE(mH): 8.348877145181177e-11
time: 0.8160, EE(mH): 1.1368683772161603e-10
time: 0.8170, EE(mH): 7.638334409421077e-11
time: 0.8180, EE(mH): 9.947598300641403e-11
time: 0.8190, EE(mH): 8.171241461241152e-11
time: 0.8200, EE(mH): 9.414691248821327e-11
time: 0.8210, EE(mH): 1.2434497875801753e-10
time: 0.8220, EE(mH): 9.237055564881302e-11
time: 0.8230, EE(mH): 8.881784197001252e-11
time: 0.8240, EE(mH): 1.0480505352461478e-10
time: 0.8250, EE(mH): 7.105427357601002e-11
time: 0.8260, EE(mH): 6.217248937900877e-11
time: 0.8270, EE(mH): 5.5067062021407764e-11
time: 0.8280, EE(mH): 7.460698725481052e-11
time: 0.8290, EE(mH): 1.1546319456101628e-10
time: 0.8300, EE(mH): 1.0480505352461478e-10
time: 0.8310, EE(mH): 8.704148513061227e-11
time: 0.8320, EE(mH): 1.1546319456101628e-10
time: 0.8330, EE(mH): 1.0125233984581428e-10
time: 0.8340, EE(mH): 1.1013412404281553e-10
time: 0.8350, EE(mH): 9.414691248821327e-11
time: 0.8360, EE(mH): 1.0302869668521453e-10
time: 0.8370, EE(mH): 1.3322676295501878e-10
time: 0.8380, EE(mH): 8.881784197001252e-11
time: 0.8390, EE(mH): 1.0480505352461478e-10
time: 0.8400, EE(mH): 9.769962616701378e-11
time: 0.8410, EE(mH): 1.0835776720341528e-10
time: 0.8420, EE(mH): 1.2612133559741778e-10
time: 0.8430, EE(mH): 1.1546319456101628e-10
time: 0.8440, EE(mH): 6.572520305780927e-11
time: 0.8450, EE(mH): 9.414691248821327e-11
time: 0.8460, EE(mH): 7.638334409421077e-11
time: 0.8470, EE(mH): 8.704148513061227e-11
time: 0.8480, EE(mH): 1.1901590823981678e-10
time: 0.8490, EE(mH): 1.1546319456101628e-10
time: 0.8500, EE(mH): 1.2079226507921703e-10
time: 0.8510, EE(mH): 8.348877145181177e-11
time: 0.8520, EE(mH): 7.638334409421077e-11
time: 0.8530, EE(mH): 7.815970093361102e-11
time: 0.8540, EE(mH): 7.460698725481052e-11
time: 0.8550, EE(mH): 9.414691248821327e-11
time: 0.8560, EE(mH): 1.3500311979441904e-10
time: 0.8570, EE(mH): 6.927791673660977e-11
time: 0.8580, EE(mH): 8.348877145181177e-11
time: 0.8590, EE(mH): 1.0835776720341528e-10
time: 0.8600, EE(mH): 9.237055564881302e-11
time: 0.8610, EE(mH): 9.947598300641403e-11
time: 0.8620, EE(mH): 1.474376176702208e-10
time: 0.8630, EE(mH): 7.815970093361102e-11
time: 0.8640, EE(mH): 1.1013412404281553e-10
time: 0.8650, EE(mH): 7.638334409421077e-11
time: 0.8660, EE(mH): 1.0658141036401503e-10
time: 0.8670, EE(mH): 1.1191048088221578e-10
time: 0.8680, EE(mH): 7.993605777301127e-11
time: 0.8690, EE(mH): 1.1368683772161603e-10
time: 0.8700, EE(mH): 1.2967404927621828e-10
time: 0.8710, EE(mH): 1.1013412404281553e-10
time: 0.8720, EE(mH): 9.059419880941277e-11
time: 0.8730, EE(mH): 1.1368683772161603e-10
time: 0.8740, EE(mH): 1.0302869668521453e-10
time: 0.8750, EE(mH): 9.414691248821327e-11
time: 0.8760, EE(mH): 1.1368683772161603e-10
time: 0.8770, EE(mH): 1.3322676295501878e-10
time: 0.8780, EE(mH): 1.3677947663381929e-10
time: 0.8790, EE(mH): 7.993605777301127e-11
time: 0.8800, EE(mH): 8.881784197001252e-11
time: 0.8810, EE(mH): 9.592326932761353e-11
time: 0.8820, EE(mH): 8.348877145181177e-11
time: 0.8830, EE(mH): 1.1546319456101628e-10
time: 0.8840, EE(mH): 1.0658141036401503e-10
time: 0.8850, EE(mH): 1.0658141036401503e-10
time: 0.8860, EE(mH): 1.2256862191861728e-10
time: 0.8870, EE(mH): 9.059419880941277e-11
time: 0.8880, EE(mH): 1.0835776720341528e-10
time: 0.8890, EE(mH): 1.0125233984581428e-10
time: 0.8900, EE(mH): 9.769962616701378e-11
time: 0.8910, EE(mH): 9.237055564881302e-11
time: 0.8920, EE(mH): 1.0658141036401503e-10
time: 0.8930, EE(mH): 1.0302869668521453e-10
time: 0.8940, EE(mH): 1.0658141036401503e-10
time: 0.8950, EE(mH): 9.947598300641403e-11
time: 0.8960, EE(mH): 1.1013412404281553e-10
time: 0.8970, EE(mH): 1.1723955140041653e-10
time: 0.8980, EE(mH): 1.1546319456101628e-10
time: 0.8990, EE(mH): 1.0125233984581428e-10
time: 0.9000, EE(mH): 1.0480505352461478e-10
time: 0.9010, EE(mH): 1.2612133559741778e-10
time: 0.9020, EE(mH): 1.0302869668521453e-10
time: 0.9030, EE(mH): 1.0835776720341528e-10
time: 0.9040, EE(mH): 1.1901590823981678e-10
time: 0.9050, EE(mH): 1.1546319456101628e-10
time: 0.9060, EE(mH): 9.059419880941277e-11
time: 0.9070, EE(mH): 8.348877145181177e-11
time: 0.9080, EE(mH): 1.0480505352461478e-10
time: 0.9090, EE(mH): 8.526512829121202e-11
time: 0.9100, EE(mH): 1.6342482922482304e-10
time: 0.9110, EE(mH): 1.1013412404281553e-10
time: 0.9120, EE(mH): 1.1368683772161603e-10
time: 0.9130, EE(mH): 1.1901590823981678e-10
time: 0.9140, EE(mH): 9.769962616701378e-11
time: 0.9150, EE(mH): 1.2256862191861728e-10
time: 0.9160, EE(mH): 7.993605777301127e-11
time: 0.9170, EE(mH): 1.2612133559741778e-10
time: 0.9180, EE(mH): 1.0835776720341528e-10
time: 0.9190, EE(mH): 8.348877145181177e-11
time: 0.9200, EE(mH): 8.881784197001252e-11
time: 0.9210, EE(mH): 6.039613253960852e-11
time: 0.9220, EE(mH): 1.0125233984581428e-10
time: 0.9230, EE(mH): 1.1191048088221578e-10
time: 0.9240, EE(mH): 1.0125233984581428e-10
time: 0.9250, EE(mH): 7.993605777301127e-11
time: 0.9260, EE(mH): 1.1368683772161603e-10
time: 0.9270, EE(mH): 1.0125233984581428e-10
time: 0.9280, EE(mH): 1.1191048088221578e-10
time: 0.9290, EE(mH): 9.592326932761353e-11
time: 0.9300, EE(mH): 1.0302869668521453e-10
time: 0.9310, EE(mH): 1.0480505352461478e-10
time: 0.9320, EE(mH): 1.2612133559741778e-10
time: 0.9330, EE(mH): 1.1546319456101628e-10
time: 0.9340, EE(mH): 1.3677947663381929e-10
time: 0.9350, EE(mH): 9.237055564881302e-11
time: 0.9360, EE(mH): 1.0480505352461478e-10
time: 0.9370, EE(mH): 9.414691248821327e-11
time: 0.9380, EE(mH): 6.927791673660977e-11
time: 0.9390, EE(mH): 8.704148513061227e-11
time: 0.9400, EE(mH): 1.0658141036401503e-10
time: 0.9410, EE(mH): 7.993605777301127e-11
time: 0.9420, EE(mH): 1.0125233984581428e-10
time: 0.9430, EE(mH): 9.414691248821327e-11
time: 0.9440, EE(mH): 1.0480505352461478e-10
time: 0.9450, EE(mH): 1.1546319456101628e-10
time: 0.9460, EE(mH): 9.059419880941277e-11
time: 0.9470, EE(mH): 8.348877145181177e-11
time: 0.9480, EE(mH): 1.2256862191861728e-10
time: 0.9490, EE(mH): 1.2612133559741778e-10
time: 0.9500, EE(mH): 1.2434497875801753e-10
time: 0.9510, EE(mH): 7.815970093361102e-11
time: 0.9520, EE(mH): 1.1901590823981678e-10
time: 0.9530, EE(mH): 1.2967404927621828e-10
time: 0.9540, EE(mH): 1.1546319456101628e-10
time: 0.9550, EE(mH): 1.1191048088221578e-10
time: 0.9560, EE(mH): 1.0480505352461478e-10
time: 0.9570, EE(mH): 1.2079226507921703e-10
time: 0.9580, EE(mH): 1.0125233984581428e-10
time: 0.9590, EE(mH): 1.3677947663381929e-10
time: 0.9600, EE(mH): 1.4566126083082054e-10
time: 0.9610, EE(mH): 1.1901590823981678e-10
time: 0.9620, EE(mH): 1.1013412404281553e-10
time: 0.9630, EE(mH): 1.0480505352461478e-10
time: 0.9640, EE(mH): 1.3855583347321954e-10
time: 0.9650, EE(mH): 1.0125233984581428e-10
time: 0.9660, EE(mH): 1.3322676295501878e-10
time: 0.9670, EE(mH): 1.1191048088221578e-10
time: 0.9680, EE(mH): 1.3855583347321954e-10
time: 0.9690, EE(mH): 1.1901590823981678e-10
time: 0.9700, EE(mH): 1.509903313490213e-10
time: 0.9710, EE(mH): 1.0835776720341528e-10
time: 0.9720, EE(mH): 1.2079226507921703e-10
time: 0.9730, EE(mH): 1.3322676295501878e-10
time: 0.9740, EE(mH): 1.0125233984581428e-10
time: 0.9750, EE(mH): 1.474376176702208e-10
time: 0.9760, EE(mH): 9.769962616701378e-11
time: 0.9770, EE(mH): 1.3322676295501878e-10
time: 0.9780, EE(mH): 9.947598300641403e-11
time: 0.9790, EE(mH): 1.509903313490213e-10
time: 0.9800, EE(mH): 1.1901590823981678e-10
time: 0.9810, EE(mH): 8.704148513061227e-11
time: 0.9820, EE(mH): 1.2612133559741778e-10
time: 0.9830, EE(mH): 1.1901590823981678e-10
time: 0.9840, EE(mH): 1.1546319456101628e-10
time: 0.9850, EE(mH): 1.4033219031261979e-10
time: 0.9860, EE(mH): 1.0658141036401503e-10
time: 0.9870, EE(mH): 9.769962616701378e-11
time: 0.9880, EE(mH): 1.2434497875801753e-10
time: 0.9890, EE(mH): 1.1901590823981678e-10
time: 0.9900, EE(mH): 1.0658141036401503e-10
time: 0.9910, EE(mH): 1.2612133559741778e-10
time: 0.9920, EE(mH): 1.2612133559741778e-10
time: 0.9930, EE(mH): 1.1546319456101628e-10
time: 0.9940, EE(mH): 1.652011860642233e-10
time: 0.9950, EE(mH): 1.0835776720341528e-10
time: 0.9960, EE(mH): 9.769962616701378e-11
time: 0.9970, EE(mH): 1.1901590823981678e-10
time: 0.9980, EE(mH): 1.0480505352461478e-10
time: 0.9990, EE(mH): 1.4033219031261979e-10
time: 1.0000, EE(mH): 9.769962616701378e-11
trace error:  [0. 0.]
Ehrenfest error:  [0. 0.]
imaginary part of energy:  7.619147501095208e-16

#################### OCCD propagation ################
check initial energy: -7.871355587185723
time: 0.0000, EE(mH): 0.0, X: 4.3089934812856456e-07
time: 0.0010, EE(mH): 8.881784197001252e-12, X: 3.917670100673259e-05
time: 0.0020, EE(mH): 0.0, X: 7.834987338210762e-05
time: 0.0030, EE(mH): 2.1316282072803006e-11, X: 0.00011752388303389457
time: 0.0040, EE(mH): 6.394884621840902e-11, X: 0.00015669813688356973
time: 0.0050, EE(mH): 1.1368683772161603e-10, X: 0.0001958725157675411
time: 0.0060, EE(mH): 1.9539925233402755e-10, X: 0.00023504697950541697
time: 0.0070, EE(mH): 3.0020430585864233e-10, X: 0.00027422151047546225
time: 0.0080, EE(mH): 4.476419235288631e-10, X: 0.00031339609950646873
time: 0.0090, EE(mH): 6.341593916658894e-10, X: 0.00035257074117351294
time: 0.0100, EE(mH): 8.739675649849232e-10, X: 0.00039174543191491777
time: 0.0110, EE(mH): 1.149302875091962e-09, X: 0.00043092016917507754
time: 0.0120, EE(mH): 1.4974688156144111e-09, X: 0.0004700949509747574
time: 0.0130, EE(mH): 1.8882673202824662e-09, X: 0.0005092697756786747
time: 0.0140, EE(mH): 2.33946195749013e-09, X: 0.0005484446418617691
time: 0.0150, EE(mH): 2.8812507935072063e-09, X: 0.0005876195482280338
time: 0.0160, EE(mH): 3.4781066915456904e-09, X: 0.0006267944935589622
time: 0.0170, EE(mH): 4.174438572590589e-09, X: 0.000665969476679442
time: 0.0180, EE(mH): 4.952482868247898e-09, X: 0.0007051444964342062
time: 0.0190, EE(mH): 5.808686864838819e-09, X: 0.0007443195516711375
time: 0.0200, EE(mH): 6.746603276042151e-09, X: 0.0007834946412288215
time: 0.0210, EE(mH): 7.8053119523247e-09, X: 0.0008226697639270702
time: 0.0220, EE(mH): 8.956391184256063e-09, X: 0.0008618449185595026
time: 0.0230, EE(mH): 1.0222933610748441e-08, X: 0.0009010201038873307
time: 0.0240, EE(mH): 1.1596057447604835e-08, X: 0.0009401953186343669
time: 0.0250, EE(mH): 1.3086420835861645e-08, X: 0.0009793705614825517
time: 0.0260, EE(mH): 1.4701129202876473e-08, X: 0.001018545831068092
time: 0.0270, EE(mH): 1.645616976020392e-08, X: 0.0010577211259779858
time: 0.0280, EE(mH): 1.8335555296289385e-08, X: 0.0010968964447468123
time: 0.0290, EE(mH): 2.0342838524811668e-08, X: 0.0011360717858538015
time: 0.0300, EE(mH): 2.249400665732537e-08, X: 0.0011752471477199774
time: 0.0310, EE(mH): 2.48121523327427e-08, X: 0.001214422528705593
time: 0.0320, EE(mH): 2.7251090273239242e-08, X: 0.0012535979271074867
time: 0.0330, EE(mH): 2.986944025451521e-08, X: 0.0012927733411567134
time: 0.0340, EE(mH): 3.2649438708176604e-08, X: 0.0013319487690161068
time: 0.0350, EE(mH): 3.559286199106282e-08, X: 0.0013711242087780457
time: 0.0360, EE(mH): 3.870148646001326e-08, X: 0.00141029965846209
time: 0.0370, EE(mH): 4.198952296974312e-08, X: 0.0014494751160127853
time: 0.0380, EE(mH): 4.546762966128881e-08, X: 0.0014886505792975704
time: 0.0390, EE(mH): 4.912870110729273e-08, X: 0.0015278260461044706
time: 0.0400, EE(mH): 5.297984273511247e-08, X: 0.0015670015141401442
time: 0.0410, EE(mH): 5.701394911739044e-08, X: 0.0016061769810276237
time: 0.0420, EE(mH): 6.127365281827224e-08, X: 0.0016453524443044583
time: 0.0430, EE(mH): 6.570743948941526e-08, X: 0.0016845279014204748
time: 0.0440, EE(mH): 7.035794169496512e-08, X: 0.0017237033497359115
time: 0.0450, EE(mH): 7.525358114435221e-08, X: 0.0017628787865193337
time: 0.0460, EE(mH): 8.034994891659153e-08, X: 0.0018020542089456726
time: 0.0470, EE(mH): 8.567369036427408e-08, X: 0.0018412296140942809
time: 0.0480, EE(mH): 9.119816013480886e-08, X: 0.0018804049989470896
time: 0.0490, EE(mH): 9.697842529021727e-08, X: 0.0019195803603865242
time: 0.0500, EE(mH): 1.0300915675998112e-07, X: 0.001958755695193689
time: 0.0510, EE(mH): 1.0928324911674281e-07, X: 0.001997931000046609
time: 0.0520, EE(mH): 1.1579714964682353e-07, X: 0.0020371062715181477
time: 0.0530, EE(mH): 1.2254552927970508e-07, X: 0.002076281506074308
time: 0.0540, EE(mH): 1.2957457329321187e-07, X: 0.0021154567000724145
time: 0.0550, EE(mH): 1.368718471894681e-07, X: 0.002154631849759295
time: 0.0560, EE(mH): 1.4442669282743736e-07, X: 0.0021938069512694564
time: 0.0570, EE(mH): 1.5224443927763787e-07, X: 0.002232982000623382
time: 0.0580, EE(mH): 1.603410737516242e-07, X: 0.002272156993725743
time: 0.0590, EE(mH): 1.68741465245148e-07, X: 0.00231133192636369
time: 0.0600, EE(mH): 1.7740831026458181e-07, X: 0.0023505067942052103
time: 0.0610, EE(mH): 1.8638779408775008e-07, X: 0.002389681592797339
time: 0.0620, EE(mH): 1.9564083686418599e-07, X: 0.0024288563175645524
time: 0.0630, EE(mH): 2.0519053123280173e-07, X: 0.002468030963807086
time: 0.0640, EE(mH): 2.1505996983250952e-07, X: 0.0025072055266993167
time: 0.0650, EE(mH): 2.2523849452227296e-07, X: 0.002546380001288301
time: 0.0660, EE(mH): 2.3573676344312844e-07, X: 0.0025855543824919
time: 0.0670, EE(mH): 2.4653701302668196e-07, X: 0.002624728665097504
time: 0.0680, EE(mH): 2.5768898126443673e-07, X: 0.002663902843760263
time: 0.0690, EE(mH): 2.6914648287856835e-07, X: 0.002703076913001823
time: 0.0700, EE(mH): 2.809521504332224e-07, X: 0.0027422508672085635
time: 0.0710, EE(mH): 2.930917730736837e-07, X: 0.0027814247006301925
time: 0.0720, EE(mH): 3.055902197957039e-07, X: 0.002820598407378474
time: 0.0730, EE(mH): 3.184119634624949e-07, X: 0.0028597719814254957
time: 0.0740, EE(mH): 3.3158542578348715e-07, X: 0.002898945416602543
time: 0.0750, EE(mH): 3.4513725211127166e-07, X: 0.0029381187065984984
time: 0.0760, EE(mH): 3.590425734500968e-07, X: 0.0029772918449584903
time: 0.0770, EE(mH): 3.7332270608203544e-07, X: 0.003016464825082796
time: 0.0780, EE(mH): 3.879492282976571e-07, X: 0.0030556376402252157
time: 0.0790, EE(mH): 4.02980759872662e-07, X: 0.00309481028349191
time: 0.0800, EE(mH): 4.183817736702622e-07, X: 0.003133982747840048
time: 0.0810, EE(mH): 4.341700332588516e-07, X: 0.0031731550260767367
time: 0.0820, EE(mH): 4.503508677089485e-07, X: 0.003212327110857636
time: 0.0830, EE(mH): 4.6692782973423164e-07, X: 0.003251498994685803
time: 0.0840, EE(mH): 4.839115774757374e-07, X: 0.00329067066991047
time: 0.0850, EE(mH): 5.012719128671961e-07, X: 0.003329842128725945
time: 0.0860, EE(mH): 5.190603502569502e-07, X: 0.0033690133631705385
time: 0.0870, EE(mH): 5.372697842176422e-07, X: 0.003408184365125261
time: 0.0880, EE(mH): 5.55891332965075e-07, X: 0.0034473551263129155
time: 0.0890, EE(mH): 5.749161147150517e-07, X: 0.0034865256382971
time: 0.0900, EE(mH): 5.943974201727542e-07, X: 0.0035256958924809066
time: 0.0910, EE(mH): 6.142890640603582e-07, X: 0.003564865880106134
time: 0.0920, EE(mH): 6.346283498714911e-07, X: 0.0036040355922523164
time: 0.0930, EE(mH): 6.554152776061528e-07, X: 0.0036432050198357043
time: 0.0940, EE(mH): 6.766551763348616e-07, X: 0.0036823741536083
time: 0.0950, EE(mH): 6.983338352029023e-07, X: 0.0037215429841569543
time: 0.0960, EE(mH): 7.20447701496596e-07, X: 0.003760711501902617
time: 0.0970, EE(mH): 7.430358550664096e-07, X: 0.0037998796970993795
time: 0.0980, EE(mH): 7.661018486260218e-07, X: 0.003839047559833636
time: 0.0990, EE(mH): 7.896172604660023e-07, X: 0.0038782150800234566
time: 0.1000, EE(mH): 8.136211704368179e-07, X: 0.003917382247417497
time: 0.1010, EE(mH): 8.38106473111111e-07, X: 0.003956549051594626
time: 0.1020, EE(mH): 8.630607339910057e-07, X: 0.003995715481962954
time: 0.1030, EE(mH): 8.885123747859325e-07, X: 0.004034881527759169
time: 0.1040, EE(mH): 9.144507373548549e-07, X: 0.004074047178047988
time: 0.1050, EE(mH): 9.408864798388095e-07, X: 0.0041132124217214275
time: 0.1060, EE(mH): 9.678249313083143e-07, X: 0.004152377247498348
time: 0.1070, EE(mH): 9.952625390496905e-07, X: 0.004191541643923532
time: 0.1080, EE(mH): 1.0232241720586899e-06, X: 0.004230705599367449
time: 0.1090, EE(mH): 1.0516920667669183e-06, X: 0.004269869102025706
time: 0.1100, EE(mH): 1.0806662231743758e-06, X: 0.004309032139918383
time: 0.1110, EE(mH): 1.1101839447746897e-06, X: 0.004348194700889653
time: 0.1120, EE(mH): 1.1402114807879116e-06, X: 0.004387356772607391
time: 0.1130, EE(mH): 1.170787911064508e-06, X: 0.004426518342562706
time: 0.1140, EE(mH): 1.2018936956792459e-06, X: 0.00446567939806943
time: 0.1150, EE(mH): 1.2335341637026431e-06, X: 0.004504839926264056
time: 0.1160, EE(mH): 1.2657395132009697e-06, X: 0.004543999914105085
time: 0.1170, EE(mH): 1.2984848751784739e-06, X: 0.0045831593483729345
time: 0.1180, EE(mH): 1.331784460489871e-06, X: 0.004622318215669589
time: 0.1190, EE(mH): 1.3656400454920004e-06, X: 0.004661476502418423
time: 0.1200, EE(mH): 1.4000747228237742e-06, X: 0.004700634194863832
time: 0.1210, EE(mH): 1.4350653998462803e-06, X: 0.004739791279071064
time: 0.1220, EE(mH): 1.470617405630037e-06, X: 0.004778947740926367
time: 0.1230, EE(mH): 1.5067644909549927e-06, X: 0.004818103566136319
time: 0.1240, EE(mH): 1.5434906686095928e-06, X: 0.004857258740228149
time: 0.1250, EE(mH): 1.5807977149506769e-06, X: 0.004896413248549645
time: 0.1260, EE(mH): 1.618690959048763e-06, X: 0.004935567076268639
time: 0.1270, EE(mH): 1.657191717185924e-06, X: 0.004974720208373679
time: 0.1280, EE(mH): 1.696282225793766e-06, X: 0.0050138726296735025
time: 0.1290, EE(mH): 1.735967813942807e-06, X: 0.00505302432479722
time: 0.1300, EE(mH): 1.7762893378403533e-06, X: 0.005092175278194542
time: 0.1310, EE(mH): 1.8171846249970258e-06, X: 0.005131325474135481
time: 0.1320, EE(mH): 1.85872650604324e-06, X: 0.005170474896711058
time: 0.1330, EE(mH): 1.9008847829127262e-06, X: 0.005209623529832895
time: 0.1340, EE(mH): 1.943654126534966e-06, X: 0.00524877135723373
time: 0.1350, EE(mH): 1.9870665113330688e-06, X: 0.005287918362467322
time: 0.1360, EE(mH): 2.0311130555228374e-06, X: 0.005327064528908992
time: 0.1370, EE(mH): 2.0757795482495567e-06, X: 0.0053662098397558615
time: 0.1380, EE(mH): 2.121103293006854e-06, X: 0.005405354278026808
time: 0.1390, EE(mH): 2.1670700789400144e-06, X: 0.005444497826563075
time: 0.1400, EE(mH): 2.2137029986879497e-06, X: 0.005483640468028618
time: 0.1410, EE(mH): 2.260955866972836e-06, X: 0.005522782184910302
time: 0.1420, EE(mH): 2.3089032907819274e-06, X: 0.005561922959518567
time: 0.1430, EE(mH): 2.3575061902647576e-06, X: 0.005601062773987349
time: 0.1440, EE(mH): 2.4067468018529325e-06, X: 0.005640201610275256
time: 0.1450, EE(mH): 2.4567157197452616e-06, X: 0.0056793394501655015
time: 0.1460, EE(mH): 2.5073241260997747e-06, X: 0.0057184762752666
time: 0.1470, EE(mH): 2.55860754805326e-06, X: 0.005757612067012761
time: 0.1480, EE(mH): 2.6106032890993447e-06, X: 0.005796746806664706
time: 0.1490, EE(mH): 2.663275822101241e-06, X: 0.005835880475310083
time: 0.1500, EE(mH): 2.7166233707021092e-06, X: 0.005875013053864234
time: 0.1510, EE(mH): 2.770692120179774e-06, X: 0.005914144523070521
time: 0.1520, EE(mH): 2.82546785967952e-06, X: 0.005953274863501405
time: 0.1530, EE(mH): 2.8809274965624354e-06, X: 0.005992404055558858
time: 0.1540, EE(mH): 2.9371065579653077e-06, X: 0.006031532079475206
time: 0.1550, EE(mH): 2.993999714817619e-06, X: 0.0060706589153138295
time: 0.1560, EE(mH): 3.0516140725467267e-06, X: 0.0061097845429701056
time: 0.1570, EE(mH): 3.109946078438952e-06, X: 0.0061489089421718985
time: 0.1580, EE(mH): 3.1690099433490104e-06, X: 0.006188032092480596
time: 0.1590, EE(mH): 3.2288092199905805e-06, X: 0.006227153973292
time: 0.1600, EE(mH): 3.289335026579465e-06, X: 0.006266274563837218
time: 0.1610, EE(mH): 3.350610455754577e-06, X: 0.006305393843183307
time: 0.1620, EE(mH): 3.4126177439475214e-06, X: 0.006344511790234626
time: 0.1630, EE(mH): 3.475365772942496e-06, X: 0.006383628383733374
time: 0.1640, EE(mH): 3.5389007280173246e-06, X: 0.0064227436022610464
time: 0.1650, EE(mH): 3.60315688396895e-06, X: 0.006461857424238785
time: 0.1660, EE(mH): 3.668176873361517e-06, X: 0.006500969827929069
time: 0.1670, EE(mH): 3.7339766834065813e-06, X: 0.0065400807914363975
time: 0.1680, EE(mH): 3.8005403268925875e-06, X: 0.006579190292708677
time: 0.1690, EE(mH): 3.867874909246893e-06, X: 0.006618298309537899
time: 0.1700, EE(mH): 3.9359697723284626e-06, X: 0.006657404819561557
time: 0.1710, EE(mH): 4.004855114203565e-06, X: 0.006696509800263919
time: 0.1720, EE(mH): 4.0745273821585215e-06, X: 0.006735613228976864
time: 0.1730, EE(mH): 4.144983023479654e-06, X: 0.006774715082881248
time: 0.1740, EE(mH): 4.216243354449034e-06, X: 0.006813815339008301
time: 0.1750, EE(mH): 4.288276400643554e-06, X: 0.0068529139742407805
time: 0.1760, EE(mH): 4.361126570984197e-06, X: 0.006892010965313907
time: 0.1770, EE(mH): 4.434788536400447e-06, X: 0.0069311062888172915
time: 0.1780, EE(mH): 4.509249862394427e-06, X: 0.0069701999211956535
time: 0.1790, EE(mH): 4.584512325322976e-06, X: 0.007009291838750583
time: 0.1800, EE(mH): 4.660599017825007e-06, X: 0.007048382017641639
time: 0.1810, EE(mH): 4.737493952688965e-06, X: 0.007087470433887931
time: 0.1820, EE(mH): 4.8152219989106015e-06, X: 0.007126557063369424
time: 0.1830, EE(mH): 4.893786709203596e-06, X: 0.007165641881828278
time: 0.1840, EE(mH): 4.973175649070072e-06, X: 0.007204724864870668
time: 0.1850, EE(mH): 5.053394147580548e-06, X: 0.007243805987967619
time: 0.1860, EE(mH): 5.1344599683034176e-06, X: 0.007282885226457339
time: 0.1870, EE(mH): 5.2163695585250025e-06, X: 0.007321962555545872
time: 0.1880, EE(mH): 5.2991140364611056e-06, X: 0.0073610379503092375
time: 0.1890, EE(mH): 5.382721823821157e-06, X: 0.007400111385694639
time: 0.1900, EE(mH): 5.467194696961997e-06, X: 0.007439182836522367
time: 0.1910, EE(mH): 5.5524900233194785e-06, X: 0.007478252277487063
time: 0.1920, EE(mH): 5.6386646463124634e-06, X: 0.007517319683159604
time: 0.1930, EE(mH): 5.7257185659409515e-06, X: 0.00755638502798846
time: 0.1940, EE(mH): 5.813639347707067e-06, X: 0.007595448286301501
time: 0.1950, EE(mH): 5.902416333469773e-06, X: 0.007634509432307902
time: 0.1960, EE(mH): 5.992099261220574e-06, X: 0.007673568440099249
time: 0.1970, EE(mH): 6.082647274752162e-06, X: 0.007712625283651869
time: 0.1980, EE(mH): 6.1740834667034505e-06, X: 0.007751679936827987
time: 0.1990, EE(mH): 6.2664007316470816e-06, X: 0.0077907323733781685
time: 0.2000, EE(mH): 6.3596186095082885e-06, X: 0.00782978256694224
time: 0.2010, EE(mH): 6.453731771216553e-06, X: 0.007868830491051783
time: 0.2020, EE(mH): 6.5487490985560726e-06, X: 0.007907876119131282
time: 0.2030, EE(mH): 6.644667038813168e-06, X: 0.007946919424500912
time: 0.2040, EE(mH): 6.741492697415197e-06, X: 0.007985960380376944
time: 0.2050, EE(mH): 6.83922429800532e-06, X: 0.008024998959874892
time: 0.2060, EE(mH): 6.93788138050877e-06, X: 0.008064035136010742
time: 0.2070, EE(mH): 7.0374337468592785e-06, X: 0.008103068881703007
time: 0.2080, EE(mH): 7.137941793189384e-06, X: 0.008142100169774217
time: 0.2090, EE(mH): 7.239352228793905e-06, X: 0.008181128972953743
time: 0.2100, EE(mH): 7.341707686236987e-06, X: 0.008220155263878409
time: 0.2110, EE(mH): 7.4449815201660385e-06, X: 0.00825917901509565
time: 0.2120, EE(mH): 7.549202152290491e-06, X: 0.008298200199064762
time: 0.2130, EE(mH): 7.654355371755628e-06, X: 0.008337218788158999
time: 0.2140, EE(mH): 7.760467823914041e-06, X: 0.008376234754667382
time: 0.2150, EE(mH): 7.867518192483658e-06, X: 0.008415248070797384
time: 0.2160, EE(mH): 7.975520688319193e-06, X: 0.00845425870867585
time: 0.2170, EE(mH): 8.084469982350129e-06, X: 0.008493266640351849
time: 0.2180, EE(mH): 8.194394496285895e-06, X: 0.008532271837798465
time: 0.2190, EE(mH): 8.30527291384442e-06, X: 0.00857127427291458
time: 0.2200, EE(mH): 8.417099905955183e-06, X: 0.00861027391752698
time: 0.2210, EE(mH): 8.529934092393887e-06, X: 0.008649270743393066
time: 0.2220, EE(mH): 8.643706195243794e-06, X: 0.008688264722201682
time: 0.2230, EE(mH): 8.75846239978273e-06, X: 0.008727255825576423
time: 0.2240, EE(mH): 8.87420981143805e-06, X: 0.008766244025076746
time: 0.2250, EE(mH): 8.990925337570843e-06, X: 0.008805229292201002
time: 0.2260, EE(mH): 9.10863739989054e-06, X: 0.008844211598387403
time: 0.2270, EE(mH): 9.227356656538177e-06, X: 0.008883190915017158
time: 0.2280, EE(mH): 9.347040474949608e-06, X: 0.00892216721341608
time: 0.2290, EE(mH): 9.46773148768898e-06, X: 0.008961140464856769
time: 0.2300, EE(mH): 9.589422589328933e-06, X: 0.009000110640560773
time: 0.2310, EE(mH): 9.712127990724184e-06, X: 0.009039077711700762
time: 0.2320, EE(mH): 9.835829928306339e-06, X: 0.009078041649402712
time: 0.2330, EE(mH): 9.960530178432236e-06, X: 0.009117002424747854
time: 0.2340, EE(mH): 1.0086269597309183e-05, X: 0.009155960008775048
time: 0.2350, EE(mH): 1.0213012657800391e-05, X: 0.009194914372482882
time: 0.2360, EE(mH): 1.0340773570760575e-05, X: 0.009233865486831768
time: 0.2370, EE(mH): 1.0469562994330772e-05, X: 0.009272813322746229
time: 0.2380, EE(mH): 1.0599380928510982e-05, X: 0.009311757851117144
time: 0.2390, EE(mH): 1.0730250465940117e-05, X: 0.0093506990428036
time: 0.2400, EE(mH): 1.0862109434128797e-05, X: 0.0093896368686355
time: 0.2410, EE(mH): 1.0995039545491636e-05, X: 0.009428571299415354
time: 0.2420, EE(mH): 1.1129017707389721e-05, X: 0.009467502305920788
time: 0.2430, EE(mH): 1.1264015498113622e-05, X: 0.009506429858906687
time: 0.2440, EE(mH): 1.1400071997513805e-05, X: 0.009545353929107435
time: 0.2450, EE(mH): 1.1537165889308199e-05, X: 0.009584274487238812
time: 0.2460, EE(mH): 1.167533270063359e-05, X: 0.009623191504000398
time: 0.2470, EE(mH): 1.1814556444278423e-05, X: 0.009662104950078156
time: 0.2480, EE(mH): 1.1954830014815343e-05, X: 0.00970101479614575
time: 0.2490, EE(mH): 1.2096164070385385e-05, X: 0.009739921012867827
time: 0.2500, EE(mH): 1.2238571045486424e-05, X: 0.009778823570901379
time: 0.2510, EE(mH): 1.238205449283214e-05, X: 0.009817722440898393
time: 0.2520, EE(mH): 1.252661796513621e-05, X: 0.009856617593507639
time: 0.2530, EE(mH): 1.2672245475187083e-05, X: 0.00989550899937788
time: 0.2540, EE(mH): 1.281895478655315e-05, X: 0.00993439662915853
time: 0.2550, EE(mH): 1.2966751228304929e-05, X: 0.009973280453503456
time: 0.2560, EE(mH): 1.3115636576799261e-05, X: 0.010012160443071847
time: 0.2570, EE(mH): 1.3265591292110912e-05, X: 0.010051036568531478
time: 0.2580, EE(mH): 1.3416666888588225e-05, X: 0.01008990880056014
time: 0.2590, EE(mH): 1.356882783909441e-05, X: 0.01012877710984827
time: 0.2600, EE(mH): 1.3722061709131594e-05, X: 0.010167641467100953
time: 0.2610, EE(mH): 1.3876430671189155e-05, X: 0.01020650184304039
time: 0.2620, EE(mH): 1.4031904527200822e-05, X: 0.010245358208407607
time: 0.2630, EE(mH): 1.4188467289955042e-05, X: 0.010284210533965193
time: 0.2640, EE(mH): 1.4346145604804406e-05, X: 0.010323058790498892
time: 0.2650, EE(mH): 1.4504939471748912e-05, X: 0.010361902948820298
time: 0.2660, EE(mH): 1.4664859548929599e-05, X: 0.010400742979768705
time: 0.2670, EE(mH): 1.482588807277807e-05, X: 0.01043957885421374
time: 0.2680, EE(mH): 1.4988053465003759e-05, X: 0.010478410543056574
time: 0.2690, EE(mH): 1.5151339738395109e-05, X: 0.010517238017232826
time: 0.2700, EE(mH): 1.5315762880163675e-05, X: 0.010556061247715269
time: 0.2710, EE(mH): 1.5481298021313705e-05, X: 0.010594880205514072
time: 0.2720, EE(mH): 1.5647989570766185e-05, X: 0.010633694861681097
time: 0.2730, EE(mH): 1.5815812659525363e-05, X: 0.0106725051873103
time: 0.2740, EE(mH): 1.5984774393018597e-05, X: 0.010711311153541327
time: 0.2750, EE(mH): 1.615489431117112e-05, X: 0.010750112731559914
time: 0.2760, EE(mH): 1.6326135110489304e-05, X: 0.010788909892602016
time: 0.2770, EE(mH): 1.6498542976250974e-05, X: 0.010827702607953925
time: 0.2780, EE(mH): 1.6672110803028772e-05, X: 0.010866490848955688
time: 0.2790, EE(mH): 1.6846819050897466e-05, X: 0.010905274587002618
time: 0.2800, EE(mH): 1.7022685483425448e-05, X: 0.010944053793547596
time: 0.2810, EE(mH): 1.719974029867899e-05, X: 0.010982828440102713
time: 0.2820, EE(mH): 1.7377930205952907e-05, X: 0.011021598498241855
time: 0.2830, EE(mH): 1.7557306719595545e-05, X: 0.01106036393960219
time: 0.2840, EE(mH): 1.773783964154063e-05, X: 0.011099124735886964
time: 0.2850, EE(mH): 1.7919557393497598e-05, X: 0.011137880858866217
time: 0.2860, EE(mH): 1.8102436882827533e-05, X: 0.011176632280380084
time: 0.2870, EE(mH): 1.8286510083953544e-05, X: 0.011215378972339995
time: 0.2880, EE(mH): 1.847175923330724e-05, X: 0.011254120906731243
time: 0.2890, EE(mH): 1.8658189659959135e-05, X: 0.011292858055614004
time: 0.2900, EE(mH): 1.8845817351120786e-05, X: 0.011331590391126372
time: 0.2910, EE(mH): 1.90346245432238e-05, X: 0.011370317885485249
time: 0.2920, EE(mH): 1.9224628999836568e-05, X: 0.011409040510988995
time: 0.2930, EE(mH): 1.941583782638645e-05, X: 0.011447758240019392
time: 0.2940, EE(mH): 1.9608227930234534e-05, X: 0.011486471045042653
time: 0.2950, EE(mH): 1.9801834838517607e-05, X: 0.011525178898612208
time: 0.2960, EE(mH): 1.9996644340380954e-05, X: 0.011563881773369925
time: 0.2970, EE(mH): 2.0192649330397217e-05, X: 0.011602579642048355
time: 0.2980, EE(mH): 2.0389890664773702e-05, X: 0.011641272477472273
time: 0.2990, EE(mH): 2.058830617102103e-05, X: 0.011679960252560954
time: 0.3000, EE(mH): 2.07879633506991e-05, X: 0.011718642940329175
time: 0.3010, EE(mH): 2.0988839111169e-05, X: 0.011757320513889544
time: 0.3020, EE(mH): 2.1190929899717048e-05, X: 0.011795992946454188
time: 0.3030, EE(mH): 2.1394237492700086e-05, X: 0.01183466021133632
time: 0.3040, EE(mH): 2.1598777877329667e-05, X: 0.011873322281952248
time: 0.3050, EE(mH): 2.1804536842751077e-05, X: 0.011911979131822239
time: 0.3060, EE(mH): 2.2011551692457942e-05, X: 0.011950630734573605
time: 0.3070, EE(mH): 2.22197744648156e-05, X: 0.011989277063940897
time: 0.3080, EE(mH): 2.242923180517664e-05, X: 0.012027918093768774
time: 0.3090, EE(mH): 2.263994147710946e-05, X: 0.012066553798012417
time: 0.3100, EE(mH): 2.285189282247302e-05, X: 0.012105184150740373
time: 0.3110, EE(mH): 2.3065060972271567e-05, X: 0.01214380912613498
time: 0.3120, EE(mH): 2.3279508098994484e-05, X: 0.012182428698494932
time: 0.3130, EE(mH): 2.349519689914814e-05, X: 0.012221042842235937
time: 0.3140, EE(mH): 2.3712143359944093e-05, X: 0.012259651531892946
time: 0.3150, EE(mH): 2.393032616510027e-05, X: 0.012298254742121074
time: 0.3160, EE(mH): 2.4149780841753454e-05, X: 0.012336852447697343
time: 0.3170, EE(mH): 2.4370491402692096e-05, X: 0.012375444623522604
time: 0.3180, EE(mH): 2.4592452518845676e-05, X: 0.012414031244621482
time: 0.3190, EE(mH): 2.4815680177425747e-05, X: 0.01245261228614579
time: 0.3200, EE(mH): 2.5040188589287027e-05, X: 0.01249118772337431
time: 0.3210, EE(mH): 2.52659546617906e-05, X: 0.01252975753171491
time: 0.3220, EE(mH): 2.549298727672067e-05, X: 0.0125683216867057
time: 0.3230, EE(mH): 2.5721297092218265e-05, X: 0.012606880164016223
time: 0.3240, EE(mH): 2.5950889437353908e-05, X: 0.012645432939448994
time: 0.3250, EE(mH): 2.618176075941392e-05, X: 0.012683979988940573
time: 0.3260, EE(mH): 2.641390395297094e-05, X: 0.012722521288562952
time: 0.3270, EE(mH): 2.664733145252285e-05, X: 0.012761056814524616
time: 0.3280, EE(mH): 2.6882064574351716e-05, X: 0.012799586543171726
time: 0.3290, EE(mH): 2.7118071344034433e-05, X: 0.01283811045098939
time: 0.3300, EE(mH): 2.7355373077853073e-05, X: 0.012876628514602846
time: 0.3310, EE(mH): 2.75939591176666e-05, X: 0.012915140710778683
time: 0.3320, EE(mH): 2.7833849003400246e-05, X: 0.012953647016425212
time: 0.3330, EE(mH): 2.8075014313344582e-05, X: 0.012992147408594647
time: 0.3340, EE(mH): 2.8317515443632146e-05, X: 0.013030641864483184
time: 0.3350, EE(mH): 2.8561306208985116e-05, X: 0.013069130361432727
time: 0.3360, EE(mH): 2.8806407925685562e-05, X: 0.013107612876931168
time: 0.3370, EE(mH): 2.9052786842953537e-05, X: 0.013146089388613936
time: 0.3380, EE(mH): 2.930050690963526e-05, X: 0.013184559874264673
time: 0.3390, EE(mH): 2.954953792766446e-05, X: 0.01322302431181619
time: 0.3400, EE(mH): 2.979986746254326e-05, X: 0.013261482679351337
time: 0.3410, EE(mH): 3.0051515054196898e-05, X: 0.013299934955103841
time: 0.3420, EE(mH): 3.0304491360766406e-05, X: 0.013338381117459074
time: 0.3430, EE(mH): 3.055878394775391e-05, X: 0.013376821144954962
time: 0.3440, EE(mH): 3.081439103880257e-05, X: 0.013415255016282907
time: 0.3450, EE(mH): 3.107133039748078e-05, X: 0.013453682710287771
time: 0.3460, EE(mH): 3.132959847107486e-05, X: 0.01349210420596964
time: 0.3470, EE(mH): 3.1589188154157455e-05, X: 0.013530519482483745
time: 0.3480, EE(mH): 3.18501189866538e-05, X: 0.013568928519141574
time: 0.3490, EE(mH): 3.2112367875924974e-05, X: 0.013607331295411033
time: 0.3500, EE(mH): 3.237598455996249e-05, X: 0.013645727790917566
time: 0.3510, EE(mH): 3.264092107713168e-05, X: 0.013684117985444255
time: 0.3520, EE(mH): 3.290717920378938e-05, X: 0.01372250185893255
time: 0.3530, EE(mH): 3.3174799796142906e-05, X: 0.013760879391482864
time: 0.3540, EE(mH): 3.3443770419694374e-05, X: 0.01379925056335508
time: 0.3550, EE(mH): 3.371407686358907e-05, X: 0.013837615354968648
time: 0.3560, EE(mH): 3.398573511503855e-05, X: 0.013875973746903428
time: 0.3570, EE(mH): 3.425876116125437e-05, X: 0.013914325719899834
time: 0.3580, EE(mH): 3.453311236967238e-05, X: 0.013952671254859406
time: 0.3590, EE(mH): 3.480883137285673e-05, X: 0.013991010332844517
time: 0.3600, EE(mH): 3.508590751266638e-05, X: 0.01402934293507983
time: 0.3610, EE(mH): 3.536434434181501e-05, X: 0.01406766904295123
time: 0.3620, EE(mH): 3.5644141860302625e-05, X: 0.014105988638007348
time: 0.3630, EE(mH): 3.5925305397199736e-05, X: 0.014144301701958486
time: 0.3640, EE(mH): 3.620782251800847e-05, X: 0.01418260821667792
time: 0.3650, EE(mH): 3.64917234207951e-05, X: 0.014220908164201214
time: 0.3660, EE(mH): 3.677699211834806e-05, X: 0.014259201526726856
time: 0.3670, EE(mH): 3.7063628610667365e-05, X: 0.01429748828661644
time: 0.3680, EE(mH): 3.735162223961197e-05, X: 0.014335768426394047
time: 0.3690, EE(mH): 3.764102629588706e-05, X: 0.014374041928746953
time: 0.3700, EE(mH): 3.793179104150113e-05, X: 0.014412308776524886
time: 0.3710, EE(mH): 3.8223927134595215e-05, X: 0.01445056895274106
time: 0.3720, EE(mH): 3.8517441680596676e-05, X: 0.014488822440571106
time: 0.3730, EE(mH): 3.8812357772144424e-05, X: 0.014527069223353391
time: 0.3740, EE(mH): 3.910864698752903e-05, X: 0.01456530928458895
time: 0.3750, EE(mH): 3.9406323537605203e-05, X: 0.014603542607941136
time: 0.3760, EE(mH): 3.9705403409584505e-05, X: 0.014641769177235356
time: 0.3770, EE(mH): 4.00058581817575e-05, X: 0.014679988976459295
time: 0.3780, EE(mH): 4.030770384133575e-05, X: 0.014718201989762193
time: 0.3790, EE(mH): 4.061096348095816e-05, X: 0.014756408201454426
time: 0.3800, EE(mH): 4.0915606902558466e-05, X: 0.014794607596008189
time: 0.3810, EE(mH): 4.1221651869705056e-05, X: 0.014832800158055498
time: 0.3820, EE(mH): 4.1529094829684254e-05, X: 0.01487098587238944
time: 0.3830, EE(mH): 4.18379464406371e-05, X: 0.014909164723962667
time: 0.3840, EE(mH): 4.214819249170887e-05, X: 0.01494733669788771
time: 0.3850, EE(mH): 4.245984008832693e-05, X: 0.014985501779435589
time: 0.3860, EE(mH): 4.277292120491438e-05, X: 0.015023659954036005
time: 0.3870, EE(mH): 4.308738610347973e-05, X: 0.01506181120727671
time: 0.3880, EE(mH): 4.340326853480292e-05, X: 0.015099955524902854
time: 0.3890, EE(mH): 4.372057382795447e-05, X: 0.015138092892816387
time: 0.3900, EE(mH): 4.403929487750702e-05, X: 0.015176223297075273
time: 0.3910, EE(mH): 4.4359421025319534e-05, X: 0.015214346723892533
time: 0.3920, EE(mH): 4.468096825860357e-05, X: 0.015252463159636897
time: 0.3930, EE(mH): 4.5003943682786485e-05, X: 0.015290572590830437
time: 0.3940, EE(mH): 4.532833663972724e-05, X: 0.0153286750041486
time: 0.3950, EE(mH): 4.5654154234853195e-05, X: 0.015366770386419114
time: 0.3960, EE(mH): 4.598140002087803e-05, X: 0.01540485872462199
time: 0.3970, EE(mH): 4.631006689237438e-05, X: 0.015442940005887277
time: 0.3980, EE(mH): 4.664016550748329e-05, X: 0.015481014217495473
time: 0.3990, EE(mH): 4.697169941891843e-05, X: 0.015519081346875515
time: 0.4000, EE(mH): 4.730467040303665e-05, X: 0.015557141381604923
time: 0.4010, EE(mH): 4.7639058919912713e-05, X: 0.015595194309407864
time: 0.4020, EE(mH): 4.797490760211076e-05, X: 0.01563324011815467
time: 0.4030, EE(mH): 4.831217736978033e-05, X: 0.015671278795860683
time: 0.4040, EE(mH): 4.865089309191717e-05, X: 0.015709310330684973
time: 0.4050, EE(mH): 4.899102989952553e-05, X: 0.01574733471092977
time: 0.4060, EE(mH): 4.933261799067168e-05, X: 0.01578535192503857
time: 0.4070, EE(mH): 4.967565914171246e-05, X: 0.015823361961595395
time: 0.4080, EE(mH): 5.002014269450683e-05, X: 0.015861364809323986
time: 0.4090, EE(mH): 5.036608285990951e-05, X: 0.01589936045708585
time: 0.4100, EE(mH): 5.07134707561363e-05, X: 0.015937348893879277
time: 0.4110, EE(mH): 5.106229039597565e-05, X: 0.01597533010883802
time: 0.4120, EE(mH): 5.14125844119917e-05, X: 0.0160133040912303
time: 0.4130, EE(mH): 5.1764324382475024e-05, X: 0.016051270830457168
time: 0.4140, EE(mH): 5.21175138601393e-05, X: 0.016089230316050772
time: 0.4150, EE(mH): 5.247218304305079e-05, X: 0.01612718253767402
time: 0.4160, EE(mH): 5.282827686414748e-05, X: 0.016165127485117857
time: 0.4170, EE(mH): 5.318584683777772e-05, X: 0.016203065148300774
time: 0.4180, EE(mH): 5.354489829301201e-05, X: 0.01624099551726687
time: 0.4190, EE(mH): 5.390537793914518e-05, X: 0.01627891858218403
time: 0.4200, EE(mH): 5.426734261959609e-05, X: 0.016316834333343543
time: 0.4210, EE(mH): 5.463077634715319e-05, X: 0.016354742761157285
time: 0.4220, EE(mH): 5.499567024003227e-05, X: 0.016392643856156318
time: 0.4230, EE(mH): 5.536204206180173e-05, X: 0.01643053760898987
time: 0.4240, EE(mH): 5.57298793779637e-05, X: 0.016468424010422904
time: 0.4250, EE(mH): 5.609918396487501e-05, X: 0.016506303051335835
time: 0.4260, EE(mH): 5.6469959375249346e-05, X: 0.01654417472272041
time: 0.4270, EE(mH): 5.684222692536878e-05, X: 0.016582039015680214
time: 0.4280, EE(mH): 5.7215952864453357e-05, X: 0.01661989592142798
time: 0.4290, EE(mH): 5.759117627235355e-05, X: 0.016657745431283445
time: 0.4300, EE(mH): 5.796787050371677e-05, X: 0.016695587536672243
time: 0.4310, EE(mH): 5.8346040887613526e-05, X: 0.016733422229123805
time: 0.4320, EE(mH): 5.87257087403259e-05, X: 0.01677124950026886
time: 0.4330, EE(mH): 5.910685629828549e-05, X: 0.016809069341838845
time: 0.4340, EE(mH): 5.948947645606495e-05, X: 0.016846881745662342
time: 0.4350, EE(mH): 5.987359408266002e-05, X: 0.016884686703664838
time: 0.4360, EE(mH): 6.025919851992967e-05, X: 0.01692248420786503
time: 0.4370, EE(mH): 6.0646295096944414e-05, X: 0.01696027425037407
time: 0.4380, EE(mH): 6.103489091913161e-05, X: 0.016998056823393268
time: 0.4390, EE(mH): 6.142496999927971e-05, X: 0.017035831919211517
time: 0.4400, EE(mH): 6.181652345560451e-05, X: 0.017073599530203504
time: 0.4410, EE(mH): 6.220960102609752e-05, X: 0.0171113596488282
time: 0.4420, EE(mH): 6.260417961811982e-05, X: 0.01714911226762566
time: 0.4430, EE(mH): 6.300023258631882e-05, X: 0.017186857379215558
time: 0.4440, EE(mH): 6.339779190511763e-05, X: 0.017224594976294836
time: 0.4450, EE(mH): 6.379686467994361e-05, X: 0.017262325051635406
time: 0.4460, EE(mH): 6.419742604180101e-05, X: 0.017300047598082083
time: 0.4470, EE(mH): 6.459949197790138e-05, X: 0.01733776260855041
time: 0.4480, EE(mH): 6.500307314638576e-05, X: 0.017375470076024125
time: 0.4490, EE(mH): 6.540816244182679e-05, X: 0.017413169993552583
time: 0.4500, EE(mH): 6.581477229872235e-05, X: 0.017450862354249416
time: 0.4510, EE(mH): 6.622284409729673e-05, X: 0.017488547151289165
[...]
time: 0.7120, EE(mH): 0.00022719283165884008, X: 0.02702874023166915
time: 0.7130, EE(mH): 0.0002280262680898204, X: 0.02706385501083388
time: 0.7140, EE(mH): 0.00022886139916522552, X: 0.027098954700711993
time: 0.7150, EE(mH): 0.00022969823554319646, X: 0.027134039232105302
time: 0.7160, EE(mH): 0.00023053677722373322, X: 0.027169108535525413
time: 0.7170, EE(mH): 0.0002313770188777653, X: 0.027204162541195107
time: 0.7180, EE(mH): 0.00023221895517622215, X: 0.027239201179050827
time: 0.7190, EE(mH): 0.00023306258789546064, X: 0.027274224378744664
time: 0.7200, EE(mH): 0.00023390793479904914, X: 0.027309232069648175
time: 0.7210, EE(mH): 0.00023475497101799192, X: 0.02734422418085377
time: 0.7220, EE(mH): 0.00023560372852671208, X: 0.027379200641177104
time: 0.7230, EE(mH): 0.0002364541842325707, X: 0.027414161379159478
time: 0.7240, EE(mH): 0.0002373063345828541, X: 0.02744910632307136
time: 0.7250, EE(mH): 0.00023816017424849178, X: 0.027484035400913293
time: 0.7260, EE(mH): 0.00023901574763840472, X: 0.027518948540420536
time: 0.7270, EE(mH): 0.0002398730138963856, X: 0.027553845669063458
time: 0.7280, EE(mH): 0.0002407319854569323, X: 0.027588726714052134
time: 0.7290, EE(mH): 0.00024159266409640168, X: 0.02762359160233706
time: 0.7300, EE(mH): 0.0002424550409330095, X: 0.027658440260613863
time: 0.7310, EE(mH): 0.00024331912662489685, X: 0.027693272615324248
time: 0.7320, EE(mH): 0.00024418491761935, X: 0.027728088592659555
time: 0.7330, EE(mH): 0.000245052413916369, X: 0.027762888118563638
time: 0.7340, EE(mH): 0.00024592164393766325, X: 0.02779767111873507
time: 0.7350, EE(mH): 0.00024679255439252756, X: 0.02783243751863069
time: 0.7360, EE(mH): 0.0002476651737026714, X: 0.027867187243467217
time: 0.7370, EE(mH): 0.0002485395071971652, X: 0.027901920218225656
time: 0.7380, EE(mH): 0.0002494155513232954, X: 0.027936636367652697
time: 0.7390, EE(mH): 0.0002502932918702072, X: 0.027971335616264477
time: 0.7400, EE(mH): 0.00025117275548325324, X: 0.028006017888349572
time: 0.7410, EE(mH): 0.00025205392795157877, X: 0.028040683107971285
time: 0.7420, EE(mH): 0.00025293681105154064, X: 0.028075331198970894
time: 0.7430, EE(mH): 0.00025382138701957047, X: 0.028109962084970568
time: 0.7440, EE(mH): 0.0002547076860537345, X: 0.028144575689376696
time: 0.7450, EE(mH): 0.00025559571170674644, X: 0.028179171935382615
time: 0.7460, EE(mH): 0.00025648542134604213, X: 0.028213750745971565
time: 0.7470, EE(mH): 0.0002573768611568994, X: 0.028248312043920063
time: 0.7480, EE(mH): 0.0002582700062703225, X: 0.028282855751800402
time: 0.7490, EE(mH): 0.00025916487800259347, X: 0.028317381791984852
time: 0.7500, EE(mH): 0.00026006144437928924, X: 0.028351890086647062
time: 0.7510, EE(mH): 0.00026095972138762136, X: 0.02838638055776709
time: 0.7520, EE(mH): 0.0002618597125803035, X: 0.028420853127133473
time: 0.7530, EE(mH): 0.00026276142683911985, X: 0.028455307716346103
time: 0.7540, EE(mH): 0.0002636648588349999, X: 0.028489744246820232
time: 0.7550, EE(mH): 0.0002645699925807321, X: 0.028524162639789727
time: 0.7560, EE(mH): 0.00026547685116895536, X: 0.0285585628163094
time: 0.7570, EE(mH): 0.00026638542038881496, X: 0.028592944697258815
time: 0.7580, EE(mH): 0.0002672956860294562, X: 0.028627308203345865
time: 0.7590, EE(mH): 0.0002682076960525137, X: 0.028661653255109353
time: 0.7600, EE(mH): 0.0002691213989436392, X: 0.028695979772923146
time: 0.7610, EE(mH): 0.0002700368479935378, X: 0.028730287676998607
time: 0.7620, EE(mH): 0.000270953993464218, X: 0.028764576887388812
time: 0.7630, EE(mH): 0.0002718728566719619, X: 0.028798847323990212
time: 0.7640, EE(mH): 0.0002727934269586285, X: 0.0288330989065488
time: 0.7650, EE(mH): 0.0002737157274168567, X: 0.028867331554660477
time: 0.7660, EE(mH): 0.0002746397491648622, X: 0.028901545187776777
time: 0.7670, EE(mH): 0.00027556548332086095, X: 0.02893573972520715
time: 0.7680, EE(mH): 0.00027649292988485286, X: 0.028969915086122296
time: 0.7690, EE(mH): 0.00027742210306769266, X: 0.029004071189557976
time: 0.7700, EE(mH): 0.00027835298510581197, X: 0.029038207954418516
time: 0.7710, EE(mH): 0.0002792856044209202, X: 0.029072325299480003
time: 0.7720, EE(mH): 0.00028021993259130795, X: 0.02910642314339401
time: 0.7730, EE(mH): 0.00028115597672240256, X: 0.029140501404690718
time: 0.7740, EE(mH): 0.0002820937545777724, X: 0.02917456000178324
time: 0.7750, EE(mH): 0.00028303323951206494, X: 0.02920859885296944
time: 0.7760, EE(mH): 0.00028397443330163696, X: 0.02924261787643766
time: 0.7770, EE(mH): 0.0002849173768026958, X: 0.02927661699026882
time: 0.7780, EE(mH): 0.00028586202560632046, X: 0.0293105961124399
time: 0.7790, EE(mH): 0.00028680839392336566, X: 0.029344555160828543
time: 0.7800, EE(mH): 0.00028775648885925875, X: 0.029378494053215676
time: 0.7810, EE(mH): 0.00028870631041399974, X: 0.02941241270728948
time: 0.7820, EE(mH): 0.00028965783727130656, X: 0.029446311040648657
time: 0.7830, EE(mH): 0.00029061109785288863, X: 0.029480188970806367
time: 0.7840, EE(mH): 0.0002915660850533186, X: 0.029514046415193947
time: 0.7850, EE(mH): 0.0002925227740036007, X: 0.029547883291164343
time: 0.7860, EE(mH): 0.000293481219770797, X: 0.029581699515995322
time: 0.7870, EE(mH): 0.00029444137261691594, X: 0.029615495006893987
time: 0.7880, EE(mH): 0.0002954032432000986, X: 0.029649269680999787
time: 0.7890, EE(mH): 0.00029636684217848597, X: 0.029683023455387897
time: 0.7900, EE(mH): 0.0002973321784338623, X: 0.02971675624707391
time: 0.7910, EE(mH): 0.00029829923064994546, X: 0.02975046797301643
time: 0.7920, EE(mH): 0.0002992679988267355, X: 0.029784158550121384
time: 0.7930, EE(mH): 0.0003002384971750871, X: 0.029817827895245536
time: 0.7940, EE(mH): 0.0003012107132605024, X: 0.0298514759252003
time: 0.7950, EE(mH): 0.000302184663070193, X: 0.02988510255675461
time: 0.7960, EE(mH): 0.00030316033416966093, X: 0.029918707706640492
time: 0.7970, EE(mH): 0.000304137751427902, X: 0.029952291291553565
time: 0.7980, EE(mH): 0.00030511687576506574, X: 0.029985853228160667
time: 0.7990, EE(mH): 0.00030609773027379106, X: 0.030019393433101085
time: 0.8000, EE(mH): 0.00030708032383586215, X: 0.030052911822990334
time: 0.8010, EE(mH): 0.00030806462625321274, X: 0.030086408314425005
time: 0.8020, EE(mH): 0.00030905064818398387, X: 0.0301198828239852
time: 0.8030, EE(mH): 0.00031003840916810077, X: 0.030153335268239313
time: 0.8040, EE(mH): 0.00031102790565284977, X: 0.030186765563747
time: 0.8050, EE(mH): 0.000312019125203733, X: 0.03022017362706386
time: 0.8060, EE(mH): 0.00031301208380796197, X: 0.03025355937474409
time: 0.8070, EE(mH): 0.0003140067388329726, X: 0.03028692272334463
time: 0.8080, EE(mH): 0.00031500315422761105, X: 0.030320263589429377
time: 0.8090, EE(mH): 0.00031600128380659953, X: 0.030353581889571445
time: 0.8100, EE(mH): 0.00031700113822807907, X: 0.030386877540359104
time: 0.8110, EE(mH): 0.0003180027228211202, X: 0.030420150458398368
time: 0.8120, EE(mH): 0.00031900604469115024, X: 0.03045340056031598
time: 0.8130, EE(mH): 0.0003200110931800282, X: 0.030486627762764604
time: 0.8140, EE(mH): 0.0003210178718404677, X: 0.030519831982425836
time: 0.8150, EE(mH): 0.00032202638777789616, X: 0.030553013136013094
time: 0.8160, EE(mH): 0.00032303660901789044, X: 0.030586171140277677
time: 0.8170, EE(mH): 0.00032404859950929676, X: 0.030619305912009974
time: 0.8180, EE(mH): 0.00032506229175055523, X: 0.03065241736804487
time: 0.8190, EE(mH): 0.0003260777141633753, X: 0.03068550542526443
time: 0.8200, EE(mH): 0.0003270948898403958, X: 0.03071857000060299
time: 0.8210, EE(mH): 0.0003281137672672685, X: 0.030751611011048896
time: 0.8220, EE(mH): 0.00032913439795834165, X: 0.03078462837365051
time: 0.8230, EE(mH): 0.0003301567588209764, X: 0.03081762200551814
time: 0.8240, EE(mH): 0.00033118084274974535, X: 0.03085059182382868
time: 0.8250, EE(mH): 0.0003322066675082169, X: 0.03088353774582896
time: 0.8260, EE(mH): 0.0003332342153328227, X: 0.03091645968883946
time: 0.8270, EE(mH): 0.0003342634862235627, X: 0.03094935757025839
time: 0.8280, EE(mH): 0.0003352944997203622, X: 0.030982231307565496
time: 0.8290, EE(mH): 0.0003363272433887232, X: 0.031015080818324544
time: 0.8300, EE(mH): 0.00033736173143950055, X: 0.03104790602018925
time: 0.8310, EE(mH): 0.0003383979336746279, X: 0.031080706830903686
time: 0.8320, EE(mH): 0.00033943588029217153, X: 0.031113483168310318
time: 0.8330, EE(mH): 0.0003404755588576336, X: 0.031146234950349377
time: 0.8340, EE(mH): 0.0003415169658183004, X: 0.031178962095065692
time: 0.8350, EE(mH): 0.00034256011716138346, X: 0.03121166452061004
time: 0.8360, EE(mH): 0.0003436050057814555, X: 0.03124434214524497
time: 0.8370, EE(mH): 0.0003446516121385912, X: 0.03127699488734687
time: 0.8380, EE(mH): 0.00034569996110178636, X: 0.03130962266541045
time: 0.8390, EE(mH): 0.0003467500455656136, X: 0.03134222539805229
time: 0.8400, EE(mH): 0.00034780186020100246, X: 0.03137480300401367
time: 0.8410, EE(mH): 0.00034885540500795287, X: 0.03140735540216488
time: 0.8420, EE(mH): 0.000349910678210108, X: 0.03143988251150966
time: 0.8430, EE(mH): 0.00035096769934739314, X: 0.03147238425118735
time: 0.8440, EE(mH): 0.00035202645598531035, X: 0.03150486054047756
time: 0.8450, EE(mH): 0.0003530869463475028, X: 0.031537311298802724
time: 0.8460, EE(mH): 0.0003541491722103274, X: 0.031569736445732764
time: 0.8470, EE(mH): 0.0003552131317974272, X: 0.031602135900987934
time: 0.8480, EE(mH): 0.0003562788215560886, X: 0.0316345095844431
time: 0.8490, EE(mH): 0.00035734624148631156, X: 0.03166685741613056
time: 0.8500, EE(mH): 0.0003584154093516645, X: 0.031699179316243956
time: 0.8510, EE(mH): 0.00035948630383586533, X: 0.03173147520514206
time: 0.8520, EE(mH): 0.0003605589355970551, X: 0.031763745003352106
time: 0.8530, EE(mH): 0.000361633313517018, X: 0.03179598863157272
time: 0.8540, EE(mH): 0.0003627094145031151, X: 0.031828206010678595
time: 0.8550, EE(mH): 0.0003637872421080601, X: 0.031860397061722986
time: 0.8560, EE(mH): 0.0003648668389644172, X: 0.031892561705941735
time: 0.8570, EE(mH): 0.0003659481482287674, X: 0.031924699864756725
time: 0.8580, EE(mH): 0.0003670311912173929, X: 0.031956811459779515
time: 0.8590, EE(mH): 0.0003681159785884347, X: 0.031988896412813606
time: 0.8600, EE(mH): 0.00036920249968375174, X: 0.032020954645859766
time: 0.8610, EE(mH): 0.0003702907758196261, X: 0.032052986081117674
time: 0.8620, EE(mH): 0.0003713807537053526, X: 0.03208499064099146
time: 0.8630, EE(mH): 0.0003724724884079933, X: 0.03211696824809012
time: 0.8640, EE(mH): 0.0003735659550585524, X: 0.03214891882523468
time: 0.8650, EE(mH): 0.00037466116431517094, X: 0.03218084229545765
time: 0.8660, EE(mH): 0.00037575809841428054, X: 0.03221273858200942
time: 0.8670, EE(mH): 0.0003768567715667359, X: 0.03224460760836014
time: 0.8680, EE(mH): 0.0003779572033124623, X: 0.03227644929820342
time: 0.8690, EE(mH): 0.0003790593616770366, X: 0.0323082635754595
time: 0.8700, EE(mH): 0.0003801632537658861, X: 0.03234005036427892
time: 0.8710, EE(mH): 0.00038126886892086986, X: 0.032371809589045696
time: 0.8720, EE(mH): 0.0003823762462218383, X: 0.0324035411743805
time: 0.8730, EE(mH): 0.0003834853359307999, X: 0.03243524504514337
time: 0.8740, EE(mH): 0.00038459617535124835, X: 0.032466921126438876
time: 0.8750, EE(mH): 0.00038570875737775623, X: 0.03249856934361635
time: 0.8760, EE(mH): 0.0003868230695758257, X: 0.03253018962227648
time: 0.8770, EE(mH): 0.0003879391190508841, X: 0.03256178188827188
time: 0.8780, EE(mH): 0.00038905691646107243, X: 0.03259334606771142
time: 0.8790, EE(mH): 0.00039017645292460656, X: 0.03262488208696328
time: 0.8800, EE(mH): 0.0003912977124542749, X: 0.03265638987265854
time: 0.8810, EE(mH): 0.0003924207128136459, X: 0.03268786935169308
time: 0.8820, EE(mH): 0.00039354544867364893, X: 0.03271932045123249
time: 0.8830, EE(mH): 0.00039467193602149564, X: 0.03275074309871302
time: 0.8840, EE(mH): 0.00039580014998819024, X: 0.032782137221846905
time: 0.8850, EE(mH): 0.0003969300941264464, X: 0.0328135027486245
time: 0.8860, EE(mH): 0.00039806180396340096, X: 0.03284483960731622
time: 0.8870, EE(mH): 0.0003991952404192034, X: 0.032876147726477914
time: 0.8880, EE(mH): 0.0004003303928357127, X: 0.0329074270349515
time: 0.8890, EE(mH): 0.0004014672949637088, X: 0.03293867746186971
time: 0.8900, EE(mH): 0.0004026059450268349, X: 0.03296989893665849
time: 0.8910, EE(mH): 0.00040374631282702467, X: 0.0330010913890401
time: 0.8920, EE(mH): 0.00040488843033870126, X: 0.033032254749035615
time: 0.8930, EE(mH): 0.0004060322957855078, X: 0.03306338894696837
time: 0.8940, EE(mH): 0.00040717787896937807, X: 0.03309449391346701
time: 0.8950, EE(mH): 0.00040832522074651934, X: 0.0331255695794678
time: 0.8960, EE(mH): 0.000409474283813438, X: 0.03315661587621836
time: 0.8970, EE(mH): 0.00041062509659184343, X: 0.033187632735278826
time: 0.8980, EE(mH): 0.00041177763066002626, X: 0.03321862008852709
time: 0.8990, EE(mH): 0.00041293191266333906, X: 0.03324957786816031
time: 0.9000, EE(mH): 0.0004140879372727113, X: 0.03328050600669739
time: 0.9010, EE(mH): 0.000415245693830002, X: 0.03331140443698249
time: 0.9020, EE(mH): 0.00041640517345342687, X: 0.033342273092187874
time: 0.9030, EE(mH): 0.00041756641522283644, X: 0.033373111905816114
time: 0.9040, EE(mH): 0.0004187293747293097, X: 0.03340392081170314
time: 0.9050, EE(mH): 0.00041989409460541083, X: 0.03343469974402098
time: 0.9060, EE(mH): 0.00042106054110035984, X: 0.03346544863727983
time: 0.9070, EE(mH): 0.00042222872309594095, X: 0.03349616742633203
time: 0.9080, EE(mH): 0.0004233986388157973, X: 0.033526856046373905
time: 0.9090, EE(mH): 0.0004245702864835721, X: 0.033557514432948965
time: 0.9100, EE(mH): 0.0004257436927446179, X: 0.033588142521948604
time: 0.9110, EE(mH): 0.0004269188238481547, X: 0.03361874024961739
time: 0.9120, EE(mH): 0.0004280956886759668, X: 0.03364930755255444
time: 0.9130, EE(mH): 0.0004292742925571247, X: 0.03367984436771578
time: 0.9140, EE(mH): 0.00043045462305713045, X: 0.03371035063241679
time: 0.9150, EE(mH): 0.00043163670859769354, X: 0.03374082628433529
time: 0.9160, EE(mH): 0.00043282053141524557, X: 0.0337712712615138
time: 0.9170, EE(mH): 0.0004340060808516455, X: 0.03380168550236226
time: 0.9180, EE(mH): 0.0004351933746704617, X: 0.03383206894565995
time: 0.9190, EE(mH): 0.0004363823897790553, X: 0.03386242153055775
time: 0.9200, EE(mH): 0.0004375731492700652, X: 0.03389274319658244
time: 0.9210, EE(mH): 0.00043876565314349136, X: 0.03392303388363646
time: 0.9220, EE(mH): 0.00043995987475398124, X: 0.03395329353200206
time: 0.9230, EE(mH): 0.0004411558585104558, X: 0.03398352208234274
time: 0.9240, EE(mH): 0.0004423535671094214, X: 0.03401371947570681
time: 0.9250, EE(mH): 0.00044355301120901913, X: 0.03404388565352792
time: 0.9260, EE(mH): 0.0004447541943619626, X: 0.03407402055762919
time: 0.9270, EE(mH): 0.0004459570952519698, X: 0.03410412413022409
time: 0.9280, EE(mH): 0.00044716176716974587, X: 0.03413419631391931
time: 0.9290, EE(mH): 0.00044836813906101725, X: 0.03416423705171669
time: 0.9300, EE(mH): 0.0004495762695455596, X: 0.03419424628701625
time: 0.9310, EE(mH): 0.0004507861319780204, X: 0.03422422396361776
time: 0.9320, EE(mH): 0.00045199772280568595, X: 0.034254170025722626
time: 0.9330, EE(mH): 0.0004532110420285562, X: 0.03428408441793618
time: 0.9340, EE(mH): 0.0004544260967520586, X: 0.034313967085270264
time: 0.9350, EE(mH): 0.00045564290118704776, X: 0.03434381797314484
time: 0.9360, EE(mH): 0.0004568614357935985, X: 0.034373637027390797
time: 0.9370, EE(mH): 0.0004580817076771382, X: 0.03440342419425128
time: 0.9380, EE(mH): 0.0004593036937450279, X: 0.034433179420383805
time: 0.9390, EE(mH): 0.0004605274348534749, X: 0.034462902652862865
time: 0.9400, EE(mH): 0.00046175291146255404, X: 0.03449259383918033
time: 0.9410, EE(mH): 0.00046298010047962634, X: 0.03452225292725022
time: 0.9420, EE(mH): 0.00046420904808996966, X: 0.03455187986540841
time: 0.9430, EE(mH): 0.000465439720542804, X: 0.03458147460241458
time: 0.9440, EE(mH): 0.00046667211250905893, X: 0.03461103708745559
time: 0.9450, EE(mH): 0.0004679062648449417, X: 0.03464056727014604
time: 0.9460, EE(mH): 0.0004691421455760292, X: 0.034670065100530854
time: 0.9470, EE(mH): 0.00047037974404418037, X: 0.034699530529087
time: 0.9480, EE(mH): 0.00047161907801296366, X: 0.034728963506725455
time: 0.9490, EE(mH): 0.0004728601457060222, X: 0.03475836398479188
time: 0.9500, EE(mH): 0.00047410296843963806, X: 0.03478773191507006
time: 0.9510, EE(mH): 0.0004753474982521766, X: 0.03481706724978311
time: 0.9520, EE(mH): 0.00047659376534170406, X: 0.034846369941594235
time: 0.9530, EE(mH): 0.00047784177326093413, X: 0.034875639943609954
time: 0.9540, EE(mH): 0.00047909148825908687, X: 0.03490487720938096
time: 0.9550, EE(mH): 0.0004803429476396559, X: 0.03493408169290335
time: 0.9560, EE(mH): 0.0004815961602844254, X: 0.03496325334862175
time: 0.9570, EE(mH): 0.0004828510746790471, X: 0.0349923921314296
time: 0.9580, EE(mH): 0.0004841077458905829, X: 0.035021497996670946
time: 0.9590, EE(mH): 0.00048536614372096665, X: 0.03505057090014289
time: 0.9600, EE(mH): 0.0004866262504066299, X: 0.03507961079809624
time: 0.9610, EE(mH): 0.00048788810325106624, X: 0.03510861764723763
time: 0.9620, EE(mH): 0.0004891516738325663, X: 0.035137591404730405
time: 0.9630, EE(mH): 0.0004904169816910553, X: 0.03516653202819712
time: 0.9640, EE(mH): 0.0004916840339319606, X: 0.0351954394757198
time: 0.9650, EE(mH): 0.0004929528039099296, X: 0.03522431370584313
time: 0.9660, EE(mH): 0.0004942232862958917, X: 0.03525315467757333
time: 0.9670, EE(mH): 0.0004954955254987681, X: 0.03528196235038175
time: 0.9680, EE(mH): 0.0004967694877677786, X: 0.0353107366842063
time: 0.9690, EE(mH): 0.0004980451695502097, X: 0.03533947763945103
time: 0.9700, EE(mH): 0.0004993225886096297, X: 0.03536818517698927
time: 0.9710, EE(mH): 0.0005006017147479724, X: 0.035396859258164076
time: 0.9720, EE(mH): 0.0005018825852687314, X: 0.035425499844789446
time: 0.9730, EE(mH): 0.0005031651664211267, X: 0.035454106899152515
time: 0.9740, EE(mH): 0.0005044495043904362, X: 0.03548268038401368
time: 0.9750, EE(mH): 0.0005057355583204526, X: 0.03551122026260853
time: 0.9760, EE(mH): 0.0005070233299875326, X: 0.035539726498649615
time: 0.9770, EE(mH): 0.0005083128336025311, X: 0.035568199056325855
time: 0.9780, EE(mH): 0.0005096040638363775, X: 0.035596637900305594
time: 0.9790, EE(mH): 0.000510897017136358, X: 0.03562504299573712
time: 0.9800, EE(mH): 0.0005121917094896844, X: 0.035653414308249115
time: 0.9810, EE(mH): 0.000513488124909145, X: 0.03568175180395336
time: 0.9820, EE(mH): 0.0005147862438548145, X: 0.035710055449444
time: 0.9830, EE(mH): 0.0005160861178410414, X: 0.03573832521179994
time: 0.9840, EE(mH): 0.0005173876900244068, X: 0.03576656105858511
time: 0.9850, EE(mH): 0.0005186910083665452, X: 0.03579476295785109
time: 0.9860, EE(mH): 0.0005199960213531085, X: 0.03582293087813545
time: 0.9870, EE(mH): 0.0005213027858275154, X: 0.035851064788465836
time: 0.9880, EE(mH): 0.0005226112627099155, X: 0.035879164658357734
time: 0.9890, EE(mH): 0.0005239214644348067, X: 0.03590723045781819
time: 0.9900, EE(mH): 0.0005252333714622637, X: 0.03593526215734533
time: 0.9910, EE(mH): 0.0005265470406357053, X: 0.03596325972792996
time: 0.9920, EE(mH): 0.0005278623920190739, X: 0.035991223141055975
time: 0.9930, EE(mH): 0.0005291794984429998, X: 0.03601915236870088
time: 0.9940, EE(mH): 0.0005304983119458484, X: 0.036047047383337895
time: 0.9950, EE(mH): 0.0005318188449621175, X: 0.03607490815793588
time: 0.9960, EE(mH): 0.0005331410921627366, X: 0.036102734665960416
time: 0.9970, EE(mH): 0.0005344650748639879, X: 0.036130526881374754
time: 0.9980, EE(mH): 0.0005357907646441618, X: 0.036158284778640026
time: 0.9990, EE(mH): 0.0005371181703850425, X: 0.03618600833271729
time: 1.0000, EE(mH): 0.0005384473205083395, X: 0.03621369751906668
trace error:  [0. 0.]
Ehrenfest error:  7.695420320708708e-13
energy conservation error:  [0. 0.]
imaginary part of energy:  0.0
